 # XSF File generated by VASP
 CRYSTAL
 PRIMVEC
     4.8633035     0.0000000     0.0000000
     0.0000000     4.8633035     0.0000000
     0.0000000     0.0000000     4.8633035
 CONVVEC
     4.8633035     0.0000000     0.0000000
     0.0000000     4.8633035     0.0000000
     0.0000000     0.0000000     4.8633035
 PRIMCOORD
          12           1
Ce       0.0000000     0.0000000     0.0000000
Ce       0.0000000     2.4316517     2.4316517
Ce       2.4316517     0.0000000     2.4316517
Ce       2.4316517     2.4316517     0.0000000
O        1.2158259     3.6474776     3.6474776
O        3.6474776     1.2158259     1.2158259
O        1.2158259     1.2158259     1.2158259
O        3.6474776     3.6474776     3.6474776
O        3.6474776     3.6474776     1.2158259
O        1.2158259     1.2158259     3.6474776
O        3.6474776     1.2158259     3.6474776
O        1.2158259     3.6474776     1.2158259
 
 BEGIN_BLOCK_DATAGRID_3D
 3D_field
 BEGIN_DATAGRID_3D_UNKNOWN
          49          49          49
     0.0000000     0.0000000     0.0000000
     4.8633035     0.0000000     0.0000000
     0.0000000     4.8633035     0.0000000
     0.0000000     0.0000000     4.8633035
 -0.11288E+01 -0.15046E+01 -0.17658E+01 -0.18896E+01 -0.18734E+01 -0.17340E+01 -0.15040E+01 -0.12235E+01 -0.92990E+00 -0.65098E+00 -0.40307E+00 -0.19398E+00 -0.26613E-01  0.99172E-01  0.18662E+00  0.24184E+00  0.27231E+00  0.28481E+00  0.28441E+00  0.27489E+00  0.25941E+00  0.24073E+00  0.22099E+00  0.20175E+00  0.18442E+00  0.17041E+00  0.16088E+00  0.15656E+00  0.15801E+00  0.16618E+00  0.18261E+00  0.20904E+00  0.24707E+00  0.29845E+00  0.36555E+00  0.45089E+00  0.55532E+00  0.67561E+00  0.80268E+00  0.92138E+00  0.10112E+01  0.10478E+01  0.10050E+01  0.86047E+00  0.60254E+00  0.23813E+00 -0.20421E+00 -0.67805E+00 -0.11288E+01
 -0.67805E+00 -0.10974E+01 -0.14225E+01 -0.16235E+01 -0.16900E+01 -0.16310E+01 -0.14725E+01 -0.12492E+01 -0.99626E+00 -0.74206E+00 -0.50595E+00 -0.29971E+00 -0.12985E+00  0.13710E-02  0.95924E-01  0.15930E+00  0.19852E+00  0.21993E+00  0.22822E+00  0.22684E+00  0.21880E+00  0.20682E+00  0.19311E+00  0.17926E+00  0.16662E+00  0.15647E+00  0.14997E+00  0.14797E+00  0.15131E+00  0.16125E+00  0.17958E+00  0.20829E+00  0.24927E+00  0.30453E+00  0.37668E+00  0.46865E+00  0.58236E+00  0.71647E+00  0.86447E+00  0.10137E+01  0.11450E+01  0.12339E+01  0.12519E+01  0.11722E+01  0.97672E+00  0.66429E+00  0.25551E+00 -0.20931E+00 -0.67805E+00
 -0.20421E+00 -0.64126E+00 -0.10083E+01 -0.12702E+01 -0.14095E+01 -0.14276E+01 -0.13427E+01 -0.11836E+01 -0.98132E+00 -0.76336E+00 -0.55077E+00 -0.35837E+00 -0.19566E+00 -0.67009E-01  0.28266E-01  0.94766E-01  0.13873E+00  0.16577E+00  0.18004E+00  0.18465E+00  0.18240E+00  0.17591E+00  0.16727E+00  0.15796E+00  0.14914E+00  0.14196E+00  0.13761E+00  0.13717E+00  0.14179E+00  0.15288E+00  0.17229E+00  0.20207E+00  0.24430E+00  0.30120E+00  0.37543E+00  0.47001E+00  0.58748E+00  0.72814E+00  0.88822E+00  0.10581E+01  0.12214E+01  0.13544E+01  0.14284E+01  0.14137E+01  0.12873E+01  0.10407E+01  0.68605E+00  0.25551E+00 -0.20421E+00
  0.23813E+00 -0.19029E+00 -0.57417E+00 -0.87553E+00 -0.10713E+01 -0.11560E+01 -0.11402E+01 -0.10456E+01 -0.89855E+00 -0.72426E+00 -0.54417E+00 -0.37489E+00 -0.22787E+00 -0.10901E+00 -0.18749E-01  0.46438E-01  0.91691E-01  0.12165E+00  0.13976E+00  0.14870E+00  0.15096E+00  0.14889E+00  0.14433E+00  0.13854E+00  0.13253E+00  0.12740E+00  0.12439E+00  0.12483E+00  0.13006E+00  0.14156E+00  0.16107E+00  0.19060E+00  0.23234E+00  0.28866E+00  0.36217E+00  0.45565E+00  0.57171E+00  0.71176E+00  0.87444E+00  0.10535E+01  0.12358E+01  0.14002E+01  0.15192E+01  0.15623E+01  0.15033E+01  0.13282E+01  0.10407E+01  0.66429E+00  0.23813E+00
  0.60254E+00  0.20575E+00 -0.17019E+00 -0.48716E+00 -0.71882E+00 -0.85397E+00 -0.89626E+00 -0.86052E+00 -0.76764E+00 -0.63980E+00 -0.49749E+00 -0.35767E+00 -0.23259E+00 -0.12892E+00 -0.48027E-01  0.12476E-01  0.56388E-01  0.87166E-01  0.10742E+00  0.11931E+00  0.12492E+00  0.12618E+00  0.12460E+00  0.12127E+00  0.11712E+00  0.11325E+00  0.11097E+00  0.11171E+00  0.11687E+00  0.12791E+00  0.14645E+00  0.17441E+00  0.21406E+00  0.26787E+00  0.33828E+00  0.42762E+00  0.53812E+00  0.67159E+00  0.82841E+00  0.10053E+01  0.11928E+01  0.13735E+01  0.15225E+01  0.16104E+01  0.16101E+01  0.15033E+01  0.12873E+01  0.97672E+00  0.60254E+00
  0.86047E+00  0.51194E+00  0.16478E+00 -0.14526E+00 -0.39095E+00 -0.55739E+00 -0.64258E+00 -0.65520E+00 -0.61073E+00 -0.52763E+00 -0.42430E+00 -0.31673E+00 -0.21685E+00 -0.13143E+00 -0.62496E-01 -0.88630E-02  0.31837E-01  0.61807E-01  0.82796E-01  0.96390E-01  0.10420E+00  0.10770E+00  0.10810E+00  0.10632E+00  0.10332E+00  0.10020E+00  0.98205E-01  0.98707E-01  0.10308E+00  0.11273E+00  0.12923E+00  0.15446E+00  0.19070E+00  0.24041E+00  0.30583E+00  0.38880E+00  0.49091E+00  0.61378E+00  0.75856E+00  0.92417E+00  0.11046E+01  0.12866E+01  0.14492E+01  0.15660E+01  0.16104E+01  0.15623E+01  0.14137E+01  0.11722E+01  0.86047E+00
  0.10050E+01  0.71366E+00  0.40957E+00  0.12436E+00 -0.11601E+00 -0.29495E+00 -0.40656E+00 -0.45451E+00 -0.44937E+00 -0.40558E+00 -0.33863E+00 -0.26256E+00 -0.18807E+00 -0.12156E+00 -0.65506E-01 -0.19841E-01  0.16440E-01  0.44388E-01  0.64968E-01  0.79231E-01  0.88309E-01  0.93249E-01  0.94932E-01  0.94187E-01  0.91930E-01  0.89195E-01  0.87091E-01  0.86802E-01  0.89624E-01  0.96995E-01  0.11053E+00  0.13209E+00  0.16390E+00  0.20828E+00  0.26730E+00  0.34239E+00  0.43456E+00  0.54483E+00  0.67428E+00  0.82291E+00  0.98739E+00  0.11585E+01  0.13198E+01  0.14492E+01  0.15225E+01  0.15192E+01  0.14284E+01  0.12519E+01  0.10050E+01
  0.10478E+01  0.81508E+00  0.56094E+00  0.31184E+00  0.91053E-01 -0.84917E-01 -0.20794E+00 -0.27802E+00 -0.30160E+00 -0.28927E+00 -0.25322E+00 -0.20499E+00 -0.15357E+00 -0.10467E+00 -0.61026E-01 -0.23504E-01  0.77993E-02  0.33029E-01  0.52531E-01  0.66886E-01  0.76778E-01  0.82827E-01  0.85591E-01  0.85718E-01  0.84007E-01  0.81347E-01  0.78654E-01  0.76948E-01  0.77496E-01  0.81829E-01  0.91667E-01  0.10887E+00  0.13549E+00  0.17365E+00  0.22524E+00  0.29154E+00  0.37317E+00  0.47046E+00  0.58383E+00  0.71336E+00  0.85724E+00  0.10095E+01  0.11585E+01  0.12866E+01  0.13735E+01  0.14002E+01  0.13544E+01  0.12339E+01  0.10478E+01
  0.10112E+01  0.83291E+00  0.62900E+00  0.42072E+00  0.22785E+00  0.65651E-01 -0.56928E-01 -0.13750E+00 -0.17935E+00 -0.18965E+00 -0.17747E+00 -0.15167E+00 -0.11942E+00 -0.85581E-01 -0.52952E-01 -0.23014E-01  0.34031E-02  0.25848E-01  0.44219E-01  0.58684E-01  0.69483E-01  0.76798E-01  0.80816E-01  0.81896E-01  0.80615E-01  0.77675E-01  0.73858E-01  0.70136E-01  0.67820E-01  0.68558E-01  0.74160E-01  0.86460E-01  0.10732E+00  0.13865E+00  0.18221E+00  0.23928E+00  0.31030E+00  0.39510E+00  0.49328E+00  0.60432E+00  0.72690E+00  0.85724E+00  0.98739E+00  0.11046E+01  0.11928E+01  0.12358E+01  0.12214E+01  0.11450E+01  0.10112E+01
  0.92138E+00  0.78943E+00  0.63137E+00  0.46347E+00  0.30182E+00  0.15969E+00  0.45851E-01 -0.36035E-01 -0.87020E-01 -0.11160E+00 -0.11606E+00 -0.10685E+00 -0.89369E-01 -0.67586E-01 -0.44127E-01 -0.20727E-01  0.14370E-02  0.21603E-01  0.39348E-01  0.54441E-01  0.66661E-01  0.75724E-01  0.81385E-01  0.83623E-01  0.82708E-01  0.79168E-01  0.73764E-01  0.67548E-01  0.61942E-01  0.58676E-01  0.59602E-01  0.66525E-01  0.81192E-01  0.10536E+00  0.14068E+00  0.18843E+00  0.24905E+00  0.32210E+00  0.40654E+00  0.50113E+00  0.60432E+00  0.71336E+00  0.82291E+00  0.92417E+00  0.10053E+01  0.10535E+01  0.10581E+01  0.10137E+01  0.92138E+00
  0.80268E+00  0.70760E+00  0.58848E+00  0.45730E+00  0.32654E+00  0.20720E+00  0.10713E+00  0.30397E-01 -0.22686E-01 -0.54625E-01 -0.69485E-01 -0.71631E-01 -0.64914E-01 -0.52353E-01 -0.36196E-01 -0.18089E-01  0.77426E-03  0.19532E-01  0.37517E-01  0.54098E-01  0.68560E-01  0.80111E-01  0.88019E-01  0.91793E-01  0.91347E-01  0.87053E-01  0.79743E-01  0.70662E-01  0.61391E-01  0.53734E-01  0.49562E-01  0.50698E-01  0.58886E-01  0.75802E-01  0.10299E+00  0.14163E+00  0.19217E+00  0.25411E+00  0.32616E+00  0.40654E+00  0.49328E+00  0.58383E+00  0.67428E+00  0.75856E+00  0.82841E+00  0.87444E+00  0.88822E+00  0.86447E+00  0.80268E+00
  0.67561E+00  0.60820E+00  0.52035E+00  0.42053E+00  0.31804E+00  0.22145E+00  0.13733E+00  0.69491E-01  0.18948E-01 -0.15444E-01 -0.36052E-01 -0.45565E-01 -0.46465E-01 -0.40844E-01 -0.30381E-01 -0.16369E-01  0.22151E-03  0.18587E-01  0.37886E-01  0.57092E-01  0.74967E-01  0.90147E-01  0.10130E+00  0.10737E+00  0.10783E+00  0.10288E+00  0.93467E-01  0.81117E-01  0.67677E-01  0.55114E-01  0.45398E-01  0.40440E-01  0.42042E-01  0.51835E-01  0.71202E-01  0.10114E+00  0.14203E+00  0.19345E+00  0.25411E+00  0.32210E+00  0.39510E+00  0.47046E+00  0.54483E+00  0.61378E+00  0.67159E+00  0.71176E+00  0.72814E+00  0.71647E+00  0.67561E+00
  0.55532E+00  0.50789E+00  0.44407E+00  0.36968E+00  0.29136E+00  0.21544E+00  0.14702E+00  0.89327E-01  0.43612E-01  0.96039E-02 -0.13823E-01 -0.28051E-01 -0.34416E-01 -0.34117E-01 -0.28152E-01 -0.17277E-01 -0.20586E-02  0.16895E-01  0.38670E-01  0.61897E-01  0.84788E-01  0.10528E+00  0.12129E+00  0.13099E+00  0.13329E+00  0.12812E+00  0.11654E+00  0.10044E+00  0.82120E-01  0.63953E-01  0.48197E-01  0.36934E-01  0.32005E-01  0.34939E-01  0.46902E-01  0.68659E-01  0.10049E+00  0.14203E+00  0.19217E+00  0.24905E+00  0.31030E+00  0.37317E+00  0.43456E+00  0.49091E+00  0.53812E+00  0.57171E+00  0.58748E+00  0.58236E+00  0.55532E+00
  0.45089E+00  0.41773E+00  0.37185E+00  0.31718E+00  0.25826E+00  0.19958E+00  0.14487E+00  0.96654E-01  0.56169E-01  0.23669E-01 -0.11039E-02 -0.18567E-01 -0.29147E-01 -0.33235E-01 -0.31101E-01 -0.22838E-01 -0.84590E-02  0.11791E-01  0.37084E-01  0.65813E-01  0.95626E-01  0.12363E+00  0.14671E+00  0.16207E+00  0.16782E+00  0.16344E+00  0.15000E+00  0.12982E+00  0.10588E+00  0.81310E-01  0.58933E-01  0.41127E-01  0.29733E-01  0.26076E-01  0.31046E-01  0.45183E-01  0.68659E-01  0.10114E+00  0.14163E+00  0.18843E+00  0.23928E+00  0.29154E+00  0.34239E+00  0.38880E+00  0.42762E+00  0.45565E+00  0.47001E+00  0.46865E+00  0.45089E+00
  0.36555E+00  0.34278E+00  0.31016E+00  0.27028E+00  0.22617E+00  0.18091E+00  0.13710E+00  0.96642E-01  0.60638E-01  0.29647E-01  0.39679E-02 -0.16165E-01 -0.30515E-01 -0.38788E-01 -0.40524E-01 -0.35052E-01 -0.21662E-01 -0.21864E-04  0.29349E-01  0.64771E-01  0.10336E+00  0.14127E+00  0.17416E+00  0.19794E+00  0.20961E+00  0.20796E+00  0.19383E+00  0.16992E+00  0.14005E+00  0.10839E+00  0.78710E-01  0.53899E-01  0.35866E-01  0.25705E-01  0.23997E-01  0.31046E-01  0.46902E-01  0.71202E-01  0.10299E+00  0.14068E+00  0.18221E+00  0.22524E+00  0.26730E+00  0.30583E+00  0.33828E+00  0.36217E+00  0.37543E+00  0.37668E+00  0.36555E+00
  0.29845E+00  0.28346E+00  0.26068E+00  0.23175E+00  0.19863E+00  0.16335E+00  0.12771E+00  0.93070E-01  0.60384E-01  0.30344E-01  0.35533E-02 -0.19390E-01 -0.37827E-01 -0.50918E-01 -0.57476E-01 -0.55950E-01 -0.44698E-01 -0.22543E-01  0.10592E-01  0.53189E-01  0.10196E+00  0.15208E+00  0.19781E+00  0.23348E+00  0.25463E+00  0.25892E+00  0.24661E+00  0.22051E+00  0.18529E+00  0.14636E+00  0.10872E+00  0.76141E-01  0.50891E-01  0.33981E-01  0.25705E-01  0.26076E-01  0.34940E-01  0.51835E-01  0.75802E-01  0.10536E+00  0.13865E+00  0.17365E+00  0.20828E+00  0.24041E+00  0.26787E+00  0.28866E+00  0.30120E+00  0.30453E+00  0.29845E+00
  0.24707E+00  0.23796E+00  0.22251E+00  0.20167E+00  0.17663E+00  0.14867E+00  0.11899E+00  0.88523E-01  0.58030E-01  0.28202E-01 -0.28517E-03 -0.26731E-01 -0.50287E-01 -0.69689E-01 -0.83016E-01 -0.87689E-01 -0.80886E-01 -0.60271E-01 -0.24836E-01  0.24388E-01  0.83959E-01  0.14818E+00  0.20984E+00  0.26145E+00  0.29663E+00  0.31138E+00  0.30490E+00  0.27970E+00  0.24102E+00  0.19551E+00  0.14964E+00  0.10849E+00  0.75149E-01  0.50891E-01  0.35866E-01  0.29733E-01  0.32005E-01  0.42042E-01  0.58886E-01  0.81192E-01  0.10732E+00  0.13549E+00  0.16390E+00  0.19070E+00  0.21406E+00  0.23234E+00  0.24430E+00  0.24927E+00  0.24707E+00
  0.20904E+00  0.20432E+00  0.19428E+00  0.17937E+00  0.16025E+00  0.13768E+00  0.11235E+00  0.84818E-01  0.55603E-01  0.25246E-01 -0.57230E-02 -0.36749E-01 -0.66995E-01 -0.94884E-01 -0.11773E+00 -0.13179E+00 -0.13281E+00 -0.11699E+00 -0.82020E-01 -0.28038E-01  0.41755E-01  0.12108E+00  0.20132E+00  0.27294E+00  0.32722E+00  0.35792E+00  0.36256E+00  0.34283E+00  0.30411E+00  0.25405E+00  0.20067E+00  0.15068E+00  0.10849E+00  0.76141E-01  0.53899E-01  0.41127E-01  0.36934E-01  0.40440E-01  0.50698E-01  0.66525E-01  0.86460E-01  0.10887E+00  0.13209E+00  0.15446E+00  0.17441E+00  0.19060E+00  0.20207E+00  0.20829E+00  0.20904E+00
  0.18261E+00  0.18114E+00  0.17505E+00  0.16449E+00  0.14977E+00  0.13125E+00  0.10918E+00  0.83731E-01  0.55124E-01  0.23598E-01 -0.10664E-01 -0.47471E-01 -0.86174E-01 -0.12497E+00 -0.16041E+00 -0.18750E+00 -0.20045E+00 -0.19375E+00 -0.16342E+00 -0.10822E+00 -0.30561E-01  0.63183E-01  0.16326E+00  0.25803E+00  0.33610E+00  0.38846E+00  0.41031E+00  0.40187E+00  0.36809E+00  0.31719E+00  0.25856E+00  0.20067E+00  0.14964E+00  0.10872E+00  0.78710E-01  0.58933E-01  0.48197E-01  0.45398E-01  0.49562E-01  0.59602E-01  0.74160E-01  0.91667E-01  0.11053E+00  0.12923E+00  0.14645E+00  0.16107E+00  0.17229E+00  0.17958E+00  0.18261E+00
  0.16618E+00  0.16724E+00  0.16421E+00  0.15706E+00  0.14587E+00  0.13064E+00  0.11122E+00  0.87400E-01  0.59023E-01  0.25917E-01 -0.12250E-01 -0.55815E-01 -0.10444E+00 -0.15619E+00 -0.20695E+00 -0.25058E+00 -0.27977E+00 -0.28726E+00 -0.26712E+00 -0.21619E+00 -0.13539E+00 -0.30484E-01  0.88183E-01  0.20712E+00  0.31216E+00  0.39116E+00  0.43638E+00  0.44584E+00  0.42332E+00  0.37699E+00  0.31719E+00  0.25405E+00  0.19551E+00  0.14636E+00  0.10839E+00  0.81310E-01  0.63953E-01  0.55114E-01  0.53734E-01  0.58676E-01  0.68558E-01  0.81829E-01  0.96995E-01  0.11273E+00  0.12791E+00  0.14156E+00  0.15288E+00  0.16125E+00  0.16618E+00
  0.15801E+00  0.16138E+00  0.16114E+00  0.15716E+00  0.14928E+00  0.13717E+00  0.12028E+00  0.98016E-01  0.69856E-01  0.35140E-01 -0.70833E-02 -0.57770E-01 -0.11698E+00 -0.18275E+00 -0.25052E+00 -0.31332E+00 -0.36265E+00 -0.38963E+00 -0.38622E+00 -0.34682E+00 -0.27008E+00 -0.16025E+00 -0.27486E-01  0.11350E+00  0.24606E+00  0.35484E+00  0.42869E+00  0.46264E+00  0.45841E+00  0.42332E+00  0.36809E+00  0.30411E+00  0.24102E+00  0.18529E+00  0.14005E+00  0.10588E+00  0.82120E-01  0.67677E-01  0.61391E-01  0.61942E-01  0.67820E-01  0.77496E-01  0.89624E-01  0.10308E+00  0.11687E+00  0.13006E+00  0.14179E+00  0.15131E+00  0.15801E+00
  0.15656E+00  0.16245E+00  0.16528E+00  0.16476E+00  0.16047E+00  0.15172E+00  0.13762E+00  0.11726E+00  0.89738E-01  0.53907E-01  0.81741E-02 -0.49056E-01 -0.11827E+00 -0.19767E+00 -0.28258E+00 -0.36573E+00 -0.43800E+00 -0.48922E+00 -0.50920E+00 -0.48951E+00 -0.42577E+00 -0.31985E+00 -0.18072E+00 -0.23374E-01  0.13381E+00  0.27257E+00  0.37815E+00  0.44194E+00  0.46264E+00  0.44584E+00  0.40187E+00  0.34283E+00  0.27970E+00  0.22051E+00  0.16992E+00  0.12982E+00  0.10044E+00  0.81117E-01  0.70662E-01  0.67548E-01  0.70136E-01  0.76948E-01  0.86802E-01  0.98707E-01  0.11171E+00  0.12483E+00  0.13717E+00  0.14797E+00  0.15656E+00
  0.16088E+00  0.16982E+00  0.17629E+00  0.17978E+00  0.17959E+00  0.17471E+00  0.16398E+00  0.14625E+00  0.12031E+00  0.84507E-01  0.36657E-01 -0.25428E-01 -0.10269E+00 -0.19364E+00 -0.29398E+00 -0.39682E+00 -0.49308E+00 -0.57182E+00 -0.62086E+00 -0.62867E+00 -0.58735E+00 -0.49560E+00 -0.36024E+00 -0.19548E+00 -0.20328E-01  0.14482E+00  0.28186E+00  0.37815E+00  0.42869E+00  0.43638E+00  0.41031E+00  0.36256E+00  0.30490E+00  0.24661E+00  0.19383E+00  0.15000E+00  0.11654E+00  0.93467E-01  0.79743E-01  0.73764E-01  0.73858E-01  0.78654E-01  0.87091E-01  0.98205E-01  0.11097E+00  0.12439E+00  0.13761E+00  0.14997E+00  0.16088E+00
  0.17041E+00  0.18313E+00  0.19393E+00  0.20207E+00  0.20661E+00  0.20637E+00  0.19999E+00  0.18613E+00  0.16327E+00  0.12934E+00  0.81608E-01  0.17400E-01 -0.64643E-01 -0.16357E+00 -0.27587E+00 -0.39573E+00 -0.51488E+00 -0.62222E+00 -0.70393E+00 -0.74542E+00 -0.73500E+00 -0.66772E+00 -0.54744E+00 -0.38648E+00 -0.20330E+00 -0.19286E-01  0.14482E+00  0.27257E+00  0.35484E+00  0.39116E+00  0.38846E+00  0.35792E+00  0.31138E+00  0.25892E+00  0.20796E+00  0.16344E+00  0.12812E+00  0.10288E+00  0.87053E-01  0.79168E-01  0.77675E-01  0.81347E-01  0.89195E-01  0.10020E+00  0.11325E+00  0.12740E+00  0.14196E+00  0.15647E+00  0.17041E+00
  0.18442E+00  0.20171E+00  0.21760E+00  0.23117E+00  0.24140E+00  0.24701E+00  0.24652E+00  0.23836E+00  0.22071E+00  0.19107E+00  0.14631E+00  0.83415E-01  0.67324E-03 -0.10159E+00 -0.22103E+00 -0.35344E+00 -0.49210E+00 -0.62647E+00 -0.74171E+00 -0.82056E+00 -0.84760E+00 -0.81391E+00 -0.71979E+00 -0.57476E+00 -0.39554E+00 -0.20330E+00 -0.20328E-01  0.13381E+00  0.24606E+00  0.31216E+00  0.33610E+00  0.32722E+00  0.29663E+00  0.25463E+00  0.20961E+00  0.16782E+00  0.13329E+00  0.10783E+00  0.91347E-01  0.82708E-01  0.80615E-01  0.84007E-01  0.91930E-01  0.10332E+00  0.11712E+00  0.13253E+00  0.14914E+00  0.16662E+00  0.18442E+00
  0.20175E+00  0.22442E+00  0.24626E+00  0.26638E+00  0.28375E+00  0.29703E+00  0.30455E+00  0.30444E+00  0.29450E+00  0.27188E+00  0.23317E+00  0.17519E+00  0.95989E-01 -0.47041E-02 -0.12583E+00 -0.26510E+00 -0.41790E+00 -0.57507E+00 -0.72165E+00 -0.83848E+00 -0.90682E+00 -0.91369E+00 -0.85532E+00 -0.73765E+00 -0.57476E+00 -0.38648E+00 -0.19548E+00 -0.23374E-01  0.11350E+00  0.20712E+00  0.25803E+00  0.27294E+00  0.26145E+00  0.23348E+00  0.19794E+00  0.16207E+00  0.13099E+00  0.10737E+00  0.91793E-01  0.83623E-01  0.81896E-01  0.85718E-01  0.94187E-01  0.10632E+00  0.12127E+00  0.13854E+00  0.15796E+00  0.17926E+00  0.20175E+00
  0.22099E+00  0.24985E+00  0.27876E+00  0.30695E+00  0.33342E+00  0.35666E+00  0.37466E+00  0.38513E+00  0.38545E+00  0.37247E+00  0.34265E+00  0.29276E+00  0.22077E+00  0.12595E+00  0.82503E-02 -0.13194E+00 -0.29234E+00 -0.46591E+00 -0.63869E+00 -0.79077E+00 -0.90085E+00 -0.95208E+00 -0.93632E+00 -0.85532E+00 -0.71979E+00 -0.54744E+00 -0.36024E+00 -0.18072E+00 -0.27486E-01  0.88183E-01  0.16326E+00  0.20132E+00  0.20984E+00  0.19781E+00  0.17416E+00  0.14671E+00  0.12129E+00  0.10130E+00  0.88019E-01  0.81385E-01  0.80816E-01  0.85591E-01  0.94932E-01  0.10810E+00  0.12460E+00  0.14433E+00  0.16727E+00  0.19311E+00  0.22099E+00
  0.24073E+00  0.27672E+00  0.31409E+00  0.35221E+00  0.38999E+00  0.42558E+00  0.45649E+00  0.47991E+00  0.49277E+00  0.49168E+00  0.47301E+00  0.43357E+00  0.37131E+00  0.28527E+00  0.17467E+00  0.38513E-01 -0.12309E+00 -0.30561E+00 -0.49715E+00 -0.67844E+00 -0.82682E+00 -0.92222E+00 -0.95208E+00 -0.91369E+00 -0.81391E+00 -0.66772E+00 -0.49560E+00 -0.31985E+00 -0.16025E+00 -0.30484E-01  0.63183E-01  0.12108E+00  0.14818E+00  0.15208E+00  0.14127E+00  0.12363E+00  0.10528E+00  0.90147E-01  0.80111E-01  0.75724E-01  0.76798E-01  0.82827E-01  0.93249E-01  0.10770E+00  0.12618E+00  0.14889E+00  0.17591E+00  0.20682E+00  0.24073E+00
  0.25941E+00  0.30365E+00  0.35108E+00  0.40112E+00  0.45238E+00  0.50254E+00  0.54850E+00  0.58690E+00  0.61425E+00  0.62688E+00  0.62102E+00  0.59343E+00  0.54201E+00  0.46576E+00  0.36375E+00  0.23434E+00  0.76230E-01 -0.10840E+00 -0.31035E+00 -0.51235E+00 -0.69189E+00 -0.82682E+00 -0.90085E+00 -0.90682E+00 -0.84760E+00 -0.73500E+00 -0.58735E+00 -0.42577E+00 -0.27008E+00 -0.13539E+00 -0.30561E-01  0.41755E-01  0.83959E-01  0.10196E+00  0.10336E+00  0.95626E-01  0.84788E-01  0.74967E-01  0.68560E-01  0.66661E-01  0.69483E-01  0.76778E-01  0.88309E-01  0.10420E+00  0.12492E+00  0.15096E+00  0.18240E+00  0.21880E+00  0.25941E+00
  0.27489E+00  0.32861E+00  0.38780E+00  0.45166E+00  0.51838E+00  0.58499E+00  0.64784E+00  0.70303E+00  0.74660E+00  0.77448E+00  0.78259E+00  0.76741E+00  0.72666E+00  0.65939E+00  0.56500E+00  0.44220E+00  0.28937E+00  0.10716E+00 -0.97871E-01 -0.31131E+00 -0.51235E+00 -0.67844E+00 -0.79077E+00 -0.83848E+00 -0.82056E+00 -0.74542E+00 -0.62867E+00 -0.48951E+00 -0.34682E+00 -0.21619E+00 -0.10822E+00 -0.28038E-01  0.24388E-01  0.53189E-01  0.64771E-01  0.65813E-01  0.61897E-01  0.57092E-01  0.54098E-01  0.54441E-01  0.58684E-01  0.66886E-01  0.79231E-01  0.96390E-01  0.11931E+00  0.14870E+00  0.18465E+00  0.22684E+00  0.27489E+00
  0.28441E+00  0.34883E+00  0.42132E+00  0.50068E+00  0.58447E+00  0.66915E+00  0.75053E+00  0.82418E+00  0.88556E+00  0.93000E+00  0.95283E+00  0.94998E+00  0.91881E+00  0.85840E+00  0.76883E+00  0.64994E+00  0.50103E+00  0.32252E+00  0.11908E+00 -0.97871E-01 -0.31035E+00 -0.49715E+00 -0.63869E+00 -0.72165E+00 -0.74171E+00 -0.70393E+00 -0.62086E+00 -0.50920E+00 -0.38622E+00 -0.26712E+00 -0.16342E+00 -0.82020E-01 -0.24836E-01  0.10592E-01  0.29349E-01  0.37084E-01  0.38670E-01  0.37886E-01  0.37517E-01  0.39348E-01  0.44219E-01  0.52531E-01  0.64968E-01  0.82796E-01  0.10742E+00  0.13976E+00  0.18004E+00  0.22822E+00  0.28441E+00
  0.28481E+00  0.36093E+00  0.44796E+00  0.54414E+00  0.64632E+00  0.75039E+00  0.85169E+00  0.94523E+00  0.10257E+01  0.10876E+01  0.11255E+01  0.11344E+01  0.11113E+01  0.10551E+01  0.96685E+00  0.84789E+00  0.69942E+00  0.52295E+00  0.32252E+00  0.10716E+00 -0.10840E+00 -0.30561E+00 -0.46591E+00 -0.57507E+00 -0.62647E+00 -0.62222E+00 -0.57182E+00 -0.48922E+00 -0.38963E+00 -0.28726E+00 -0.19375E+00 -0.11699E+00 -0.60271E-01 -0.22543E-01 -0.21857E-04  0.11791E-01  0.16895E-01  0.18587E-01  0.19532E-01  0.21603E-01  0.25848E-01  0.33029E-01  0.44388E-01  0.61807E-01  0.87166E-01  0.12165E+00  0.16577E+00  0.21993E+00  0.28481E+00
  0.27231E+00  0.36083E+00  0.46334E+00  0.57734E+00  0.69893E+00  0.82343E+00  0.94569E+00  0.10601E+01  0.11603E+01  0.12400E+01  0.12925E+01  0.13122E+01  0.12955E+01  0.12413E+01  0.11513E+01  0.10287E+01  0.87687E+00  0.69942E+00  0.50103E+00  0.28937E+00  0.76230E-01 -0.12309E+00 -0.29234E+00 -0.41790E+00 -0.49210E+00 -0.51488E+00 -0.49308E+00 -0.43800E+00 -0.36265E+00 -0.27977E+00 -0.20045E+00 -0.13281E+00 -0.80886E-01 -0.44698E-01 -0.21662E-01 -0.84590E-02 -0.20586E-02  0.22154E-03  0.77429E-03  0.14370E-02  0.34031E-02  0.77993E-02  0.16440E-01  0.31837E-01  0.56388E-01  0.91691E-01  0.13873E+00  0.19852E+00  0.27231E+00
  0.24184E+00  0.34314E+00  0.46188E+00  0.59461E+00  0.73653E+00  0.88228E+00  0.10261E+01  0.11615E+01  0.12814E+01  0.13781E+01  0.14442E+01  0.14734E+01  0.14616E+01  0.14079E+01  0.13145E+01  0.11862E+01  0.10287E+01  0.84789E+00  0.64994E+00  0.44220E+00  0.23434E+00  0.38513E-01 -0.13194E+00 -0.26510E+00 -0.35344E+00 -0.39573E+00 -0.39682E+00 -0.36573E+00 -0.31332E+00 -0.25058E+00 -0.18750E+00 -0.13179E+00 -0.87689E-01 -0.55950E-01 -0.35052E-01 -0.22838E-01 -0.17277E-01 -0.16369E-01 -0.18089E-01 -0.20727E-01 -0.23014E-01 -0.23504E-01 -0.19841E-01 -0.88630E-02  0.12476E-01  0.46438E-01  0.94766E-01  0.15930E+00  0.24184E+00
  0.18662E+00  0.30093E+00  0.43668E+00  0.58918E+00  0.75244E+00  0.92008E+00  0.10855E+01  0.12415E+01  0.13800E+01  0.14923E+01  0.15704E+01  0.16074E+01  0.15992E+01  0.15453E+01  0.14484E+01  0.13145E+01  0.11513E+01  0.96685E+00  0.76883E+00  0.56500E+00  0.36375E+00  0.17467E+00  0.82503E-02 -0.12583E+00 -0.22103E+00 -0.27587E+00 -0.29398E+00 -0.28258E+00 -0.25052E+00 -0.20695E+00 -0.16041E+00 -0.11773E+00 -0.83016E-01 -0.57476E-01 -0.40524E-01 -0.31101E-01 -0.28152E-01 -0.30381E-01 -0.36196E-01 -0.44127E-01 -0.52952E-01 -0.61026E-01 -0.65506E-01 -0.62496E-01 -0.48027E-01 -0.18750E-01  0.28266E-01  0.95924E-01  0.18662E+00
  0.99172E-01  0.22664E+00  0.38035E+00  0.55393E+00  0.73966E+00  0.92973E+00  0.11165E+01  0.12918E+01  0.14470E+01  0.15729E+01  0.16608E+01  0.17040E+01  0.16986E+01  0.16445E+01  0.15453E+01  0.14079E+01  0.12413E+01  0.10551E+01  0.85840E+00  0.65939E+00  0.46576E+00  0.28527E+00  0.12595E+00 -0.47041E-02 -0.10159E+00 -0.16357E+00 -0.19364E+00 -0.19767E+00 -0.18275E+00 -0.15619E+00 -0.12497E+00 -0.94884E-01 -0.69689E-01 -0.50918E-01 -0.38788E-01 -0.33235E-01 -0.34117E-01 -0.40844E-01 -0.52353E-01 -0.67586E-01 -0.85581E-01 -0.10467E+00 -0.12156E+00 -0.13143E+00 -0.12892E+00 -0.10901E+00 -0.67009E-01  0.13710E-02  0.99172E-01
 -0.26613E-01  0.11382E+00  0.28644E+00  0.48257E+00  0.69204E+00  0.90497E+00  0.11123E+01  0.13052E+01  0.14746E+01  0.16114E+01  0.17070E+01  0.17550E+01  0.17520E+01  0.16986E+01  0.15992E+01  0.14616E+01  0.12955E+01  0.11113E+01  0.91881E+00  0.72666E+00  0.54201E+00  0.37131E+00  0.22077E+00  0.95989E-01  0.67324E-03 -0.64643E-01 -0.10269E+00 -0.11827E+00 -0.11698E+00 -0.10444E+00 -0.86174E-01 -0.66995E-01 -0.50287E-01 -0.37827E-01 -0.30515E-01 -0.29147E-01 -0.34416E-01 -0.46465E-01 -0.64914E-01 -0.89369E-01 -0.11942E+00 -0.15357E+00 -0.18807E+00 -0.21685E+00 -0.23259E+00 -0.22787E+00 -0.19566E+00 -0.12985E+00 -0.26613E-01
 -0.19398E+00 -0.41782E-01  0.15006E+00  0.36997E+00  0.60448E+00  0.84078E+00  0.10679E+01  0.12763E+01  0.14572E+01  0.16021E+01  0.17034E+01  0.17553E+01  0.17550E+01  0.17040E+01  0.16074E+01  0.14734E+01  0.13122E+01  0.11344E+01  0.94998E+00  0.76741E+00  0.59343E+00  0.43357E+00  0.29276E+00  0.17519E+00  0.83415E-01  0.17400E-01 -0.25428E-01 -0.49056E-01 -0.57770E-01 -0.55815E-01 -0.47471E-01 -0.36749E-01 -0.26731E-01 -0.19390E-01 -0.16165E-01 -0.18567E-01 -0.28051E-01 -0.45565E-01 -0.71631E-01 -0.10685E+00 -0.15167E+00 -0.20499E+00 -0.26256E+00 -0.31673E+00 -0.35767E+00 -0.37489E+00 -0.35837E+00 -0.29971E+00 -0.19398E+00
 -0.40307E+00 -0.24259E+00 -0.32944E-01  0.21106E+00  0.47178E+00  0.73242E+00  0.97922E+00  0.12017E+01  0.13919E+01  0.15427E+01  0.16480E+01  0.17034E+01  0.17070E+01  0.16608E+01  0.15704E+01  0.14442E+01  0.12925E+01  0.11255E+01  0.95283E+00  0.78259E+00  0.62102E+00  0.47301E+00  0.34265E+00  0.23317E+00  0.14631E+00  0.81608E-01  0.36657E-01  0.81741E-02 -0.70834E-02 -0.12250E-01 -0.10664E-01 -0.57230E-02 -0.28518E-03  0.35533E-02  0.39679E-02 -0.11039E-02 -0.13823E-01 -0.36052E-01 -0.69485E-01 -0.11606E+00 -0.17747E+00 -0.25322E+00 -0.33863E+00 -0.42430E+00 -0.49749E+00 -0.54417E+00 -0.55077E+00 -0.50595E+00 -0.40307E+00
 -0.65098E+00 -0.48934E+00 -0.26643E+00 -0.88937E-04  0.28733E+00  0.57391E+00  0.84190E+00  0.10791E+01  0.12780E+01  0.14337E+01  0.15427E+01  0.16021E+01  0.16114E+01  0.15729E+01  0.14923E+01  0.13781E+01  0.12400E+01  0.10876E+01  0.93000E+00  0.77448E+00  0.62688E+00  0.49168E+00  0.37247E+00  0.27188E+00  0.19107E+00  0.12934E+00  0.84507E-01  0.53907E-01  0.35140E-01  0.25917E-01  0.23598E-01  0.25246E-01  0.28202E-01  0.30344E-01  0.29647E-01  0.23669E-01  0.96039E-02 -0.15444E-01 -0.54625E-01 -0.11160E+00 -0.18965E+00 -0.28927E+00 -0.40558E+00 -0.52763E+00 -0.63980E+00 -0.72426E+00 -0.76336E+00 -0.74206E+00 -0.65098E+00
 -0.92990E+00 -0.77876E+00 -0.55152E+00 -0.26815E+00  0.44450E-01  0.35842E+00  0.65060E+00  0.90561E+00  0.11157E+01  0.12780E+01  0.13919E+01  0.14572E+01  0.14746E+01  0.14470E+01  0.13800E+01  0.12814E+01  0.11603E+01  0.10257E+01  0.88556E+00  0.74660E+00  0.61425E+00  0.49277E+00  0.38545E+00  0.29450E+00  0.22071E+00  0.16327E+00  0.12031E+00  0.89738E-01  0.69856E-01  0.59023E-01  0.55124E-01  0.55603E-01  0.58030E-01  0.60384E-01  0.60638E-01  0.56169E-01  0.43612E-01  0.18948E-01 -0.22686E-01 -0.87020E-01 -0.17935E+00 -0.30160E+00 -0.44937E+00 -0.61073E+00 -0.76764E+00 -0.89855E+00 -0.98132E+00 -0.99626E+00 -0.92990E+00
 -0.12235E+01 -0.10987E+01 -0.88099E+00 -0.59081E+00 -0.25855E+00  0.82065E-01  0.40141E+00  0.67916E+00  0.90561E+00  0.10791E+01  0.12017E+01  0.12763E+01  0.13052E+01  0.12918E+01  0.12415E+01  0.11615E+01  0.10601E+01  0.94523E+00  0.82418E+00  0.70303E+00  0.58690E+00  0.47991E+00  0.38513E+00  0.30444E+00  0.23836E+00  0.18613E+00  0.14625E+00  0.11726E+00  0.98016E-01  0.87400E-01  0.83731E-01  0.84818E-01  0.88523E-01  0.93070E-01  0.96641E-01  0.96654E-01  0.89327E-01  0.69491E-01  0.30397E-01 -0.36035E-01 -0.13750E+00 -0.27802E+00 -0.45451E+00 -0.65520E+00 -0.86052E+00 -0.10456E+01 -0.11836E+01 -0.12492E+01 -0.12235E+01
 -0.15040E+01 -0.14237E+01 -0.12336E+01 -0.95228E+00 -0.61159E+00 -0.24985E+00  0.96695E-01  0.40141E+00  0.65060E+00  0.84190E+00  0.97922E+00  0.10679E+01  0.11123E+01  0.11165E+01  0.10855E+01  0.10261E+01  0.94569E+00  0.85169E+00  0.75053E+00  0.64784E+00  0.54850E+00  0.45649E+00  0.37466E+00  0.30455E+00  0.24652E+00  0.19999E+00  0.16398E+00  0.13762E+00  0.12028E+00  0.11122E+00  0.10918E+00  0.11235E+00  0.11899E+00  0.12771E+00  0.13710E+00  0.14487E+00  0.14702E+00  0.13733E+00  0.10713E+00  0.45851E-01 -0.56928E-01 -0.20794E+00 -0.40656E+00 -0.64258E+00 -0.89626E+00 -0.11402E+01 -0.13427E+01 -0.14725E+01 -0.15040E+01
 -0.17340E+01 -0.17160E+01 -0.15734E+01 -0.13208E+01 -0.98882E+00 -0.61795E+00 -0.24985E+00  0.82065E-01  0.35842E+00  0.57391E+00  0.73242E+00  0.84078E+00  0.90497E+00  0.92973E+00  0.92008E+00  0.88228E+00  0.82343E+00  0.75039E+00  0.66915E+00  0.58499E+00  0.50254E+00  0.42558E+00  0.35666E+00  0.29703E+00  0.24701E+00  0.20637E+00  0.17471E+00  0.15172E+00  0.13717E+00  0.13064E+00  0.13125E+00  0.13768E+00  0.14867E+00  0.16335E+00  0.18091E+00  0.19958E+00  0.21544E+00  0.22145E+00  0.20720E+00  0.15969E+00  0.65651E-01 -0.84917E-01 -0.29495E+00 -0.55739E+00 -0.85397E+00 -0.11560E+01 -0.14276E+01 -0.16310E+01 -0.17340E+01
 -0.18734E+01 -0.19322E+01 -0.18559E+01 -0.16533E+01 -0.13510E+01 -0.98882E+00 -0.61159E+00 -0.25855E+00  0.44450E-01  0.28733E+00  0.47178E+00  0.60448E+00  0.69204E+00  0.73966E+00  0.75244E+00  0.73653E+00  0.69893E+00  0.64632E+00  0.58447E+00  0.51838E+00  0.45238E+00  0.38999E+00  0.33342E+00  0.28375E+00  0.24140E+00  0.20661E+00  0.17959E+00  0.16047E+00  0.14928E+00  0.14587E+00  0.14977E+00  0.16025E+00  0.17663E+00  0.19863E+00  0.22617E+00  0.25826E+00  0.29136E+00  0.31804E+00  0.32654E+00  0.30182E+00  0.22785E+00  0.91054E-01 -0.11601E+00 -0.39095E+00 -0.71882E+00 -0.10713E+01 -0.14095E+01 -0.16900E+01 -0.18734E+01