CeO2                                    
   1.00000000000000     
     4.863303    0.000000    0.000000
     0.000000    4.863303    0.000000
     0.000000    0.000000    4.863303
   Ce   O 
     4     8
Direct
  0.000000  0.000000  0.000000
  0.000000  0.500000  0.500000
  0.500000  0.000000  0.500000
  0.500000  0.500000  0.000000
  0.250000  0.750000  0.750000
  0.750000  0.250000  0.250000
  0.250000  0.250000  0.250000
  0.750000  0.750000  0.750000
  0.750000  0.750000  0.250000
  0.250000  0.250000  0.750000
  0.750000  0.250000  0.750000
  0.250000  0.750000  0.250000
 
   60   60   60
 0.32476E-01 0.46956E-01 0.11067     0.26861     0.49950     0.69515     0.81078     0.86892     0.89461     0.90018    
 0.88832     0.85462     0.78821     0.67448     0.50993     0.32857     0.18652     0.10331     0.61809E-01 0.42025E-01
 0.32408E-01 0.27525E-01 0.24957E-01 0.23563E-01 0.22653E-01 0.21712E-01 0.20455E-01 0.18942E-01 0.17494E-01 0.16467E-01
 0.16099E-01 0.16467E-01 0.17494E-01 0.18942E-01 0.20455E-01 0.21712E-01 0.22653E-01 0.23563E-01 0.24957E-01 0.27525E-01
 0.32408E-01 0.42025E-01 0.61809E-01 0.10331     0.18652     0.32857     0.50993     0.67448     0.78821     0.85462    
 0.88832     0.90018     0.89461     0.86892     0.81078     0.69515     0.49950     0.26861     0.11067     0.46956E-01
 0.46956E-01 0.64766E-01 0.13773     0.30220     0.52512     0.70759     0.81520     0.86969     0.89360     0.89789    
 0.88452     0.84854     0.77873     0.66099     0.49438     0.31576     0.17912     0.10005     0.60676E-01 0.41846E-01
 0.32650E-01 0.27954E-01 0.25465E-01 0.24091E-01 0.23164E-01 0.22188E-01 0.20892E-01 0.19347E-01 0.17877E-01 0.16839E-01
 0.16467E-01 0.16839E-01 0.17877E-01 0.19347E-01 0.20892E-01 0.22188E-01 0.23164E-01 0.24091E-01 0.25465E-01 0.27954E-01
 0.32650E-01 0.41846E-01 0.60676E-01 0.10005     0.17912     0.31576     0.49438     0.66099     0.77873     0.84854    
 0.88452     0.89789     0.89360     0.86969     0.81520     0.70759     0.52512     0.30220     0.13773     0.64766E-01
 0.11067     0.13773     0.23169     0.40075     0.59324     0.73995     0.82673     0.87144     0.89026     0.89061    
 0.87246     0.82935     0.74927     0.62044     0.45002     0.28117     0.15989     0.91788E-01 0.57967E-01 0.41637E-01
 0.33564E-01 0.29378E-01 0.27099E-01 0.25765E-01 0.24767E-01 0.23651E-01 0.22196E-01 0.20516E-01 0.18958E-01 0.17877E-01
 0.17494E-01 0.17877E-01 0.18958E-01 0.20516E-01 0.22196E-01 0.23651E-01 0.24767E-01 0.25765E-01 0.27099E-01 0.29378E-01
 0.33564E-01 0.41637E-01 0.57967E-01 0.91788E-01 0.15989     0.28117     0.45002     0.62044     0.74927     0.82935    
 0.87246     0.89061     0.89026     0.87144     0.82673     0.73995     0.59324     0.40075     0.23169     0.13773    
 0.26861     0.30220     0.40075     0.54234     0.68020     0.78060     0.84118     0.87262     0.88359     0.87704    
 0.85008     0.79417     0.69726     0.55378     0.38403     0.23440     0.13553     0.81843E-01 0.55165E-01 0.42122E-01
 0.35582E-01 0.32107E-01 0.30103E-01 0.28766E-01 0.27563E-01 0.26106E-01 0.24271E-01 0.22273E-01 0.20516E-01 0.19347E-01
 0.18942E-01 0.19347E-01 0.20516E-01 0.22273E-01 0.24271E-01 0.26106E-01 0.27563E-01 0.28766E-01 0.30103E-01 0.32107E-01
 0.35582E-01 0.42122E-01 0.55165E-01 0.81843E-01 0.13553     0.23440     0.38403     0.55378     0.69726     0.79417    
 0.85008     0.87704     0.88359     0.87262     0.84118     0.78060     0.68020     0.54234     0.40075     0.30220    
 0.49950     0.52512     0.59324     0.68020     0.75982     0.81810     0.85396     0.87103     0.87170     0.85459    
 0.81361     0.73853     0.62044     0.46584     0.30806     0.18642     0.11230     0.73090E-01 0.53560E-01 0.43954E-01
 0.39097E-01 0.36406E-01 0.34640E-01 0.33142E-01 0.31467E-01 0.29340E-01 0.26811E-01 0.24271E-01 0.22196E-01 0.20892E-01
 0.20455E-01 0.20892E-01 0.22196E-01 0.24271E-01 0.26811E-01 0.29340E-01 0.31467E-01 0.33142E-01 0.34640E-01 0.36406E-01
 0.39097E-01 0.43954E-01 0.53560E-01 0.73090E-01 0.11230     0.18642     0.30806     0.46584     0.62044     0.73853    
 0.81361     0.85459     0.87170     0.87103     0.85396     0.81810     0.75982     0.68020     0.59324     0.52512    
 0.69515     0.70759     0.73995     0.78060     0.81810     0.84579     0.86135     0.86396     0.85154     0.81897    
 0.75756     0.65805     0.52073     0.36760     0.23519     0.14519     0.93734E-01 0.67013E-01 0.53803E-01 0.47416E-01
 0.44194E-01 0.42214E-01 0.40511E-01 0.38555E-01 0.36020E-01 0.32841E-01 0.29340E-01 0.26106E-01 0.23651E-01 0.22188E-01
 0.21712E-01 0.22188E-01 0.23651E-01 0.26106E-01 0.29340E-01 0.32841E-01 0.36020E-01 0.38555E-01 0.40511E-01 0.42214E-01
 0.44194E-01 0.47416E-01 0.53803E-01 0.67013E-01 0.93734E-01 0.14519     0.23519     0.36760     0.52073     0.65805    
 0.75756     0.81897     0.85154     0.86396     0.86135     0.84579     0.81810     0.78060     0.73995     0.70759    
 0.81078     0.81520     0.82673     0.84118     0.85396     0.86135     0.86041     0.84778     0.81827     0.76401    
 0.67621     0.55264     0.40835     0.27424     0.17514     0.11417     0.80846E-01 0.63956E-01 0.55946E-01 0.52323E-01
 0.50472E-01 0.48950E-01 0.47004E-01 0.44228E-01 0.40487E-01 0.36020E-01 0.31467E-01 0.27563E-01 0.24767E-01 0.23164E-01
 0.22653E-01 0.23164E-01 0.24767E-01 0.27563E-01 0.31467E-01 0.36020E-01 0.40487E-01 0.44228E-01 0.47004E-01 0.48950E-01
 0.50472E-01 0.52323E-01 0.55946E-01 0.63956E-01 0.80846E-01 0.11417     0.17514     0.27424     0.40835     0.55264    
 0.67621     0.76401     0.81827     0.84778     0.86041     0.86135     0.85396     0.84118     0.82673     0.81520    
 0.86892     0.86969     0.87144     0.87262     0.87103     0.86396     0.84778     0.81728     0.76509     0.68308    
 0.56829     0.43213     0.30074     0.19830     0.13157     0.93298E-01 0.73226E-01 0.63633E-01 0.59607E-01 0.58057E-01
 0.57084E-01 0.55622E-01 0.53103E-01 0.49269E-01 0.44228E-01 0.38555E-01 0.33142E-01 0.28766E-01 0.25765E-01 0.24091E-01
 0.23563E-01 0.24091E-01 0.25765E-01 0.28766E-01 0.33142E-01 0.38555E-01 0.44228E-01 0.49269E-01 0.53103E-01 0.55622E-01
 0.57084E-01 0.58057E-01 0.59607E-01 0.63633E-01 0.73226E-01 0.93298E-01 0.13157     0.19830     0.30074     0.43213    
 0.56829     0.68308     0.76509     0.81728     0.84778     0.86396     0.87103     0.87262     0.87144     0.86969    
 0.89461     0.89360     0.89026     0.88359     0.87170     0.85154     0.81827     0.76509     0.68461     0.57410    
 0.44347     0.31583     0.21354     0.14440     0.10320     0.80864E-01 0.69943E-01 0.65461E-01 0.64138E-01 0.63792E-01
 0.63081E-01 0.61272E-01 0.57976E-01 0.53103E-01 0.47004E-01 0.40511E-01 0.34640E-01 0.30103E-01 0.27099E-01 0.25465E-01
 0.24957E-01 0.25465E-01 0.27099E-01 0.30103E-01 0.34640E-01 0.40511E-01 0.47004E-01 0.53103E-01 0.57976E-01 0.61272E-01
 0.63081E-01 0.63792E-01 0.64138E-01 0.65461E-01 0.69943E-01 0.80864E-01 0.10320     0.14440     0.21354     0.31583    
 0.44347     0.57410     0.68461     0.76509     0.81827     0.85154     0.87170     0.88359     0.89026     0.89360    
 0.90018     0.89789     0.89061     0.87704     0.85459     0.81897     0.76401     0.68308     0.57410     0.44667    
 0.32231     0.22173     0.15247     0.11017     0.86622E-01 0.74819E-01 0.69932E-01 0.68694E-01 0.68821E-01 0.68809E-01
 0.67802E-01 0.65359E-01 0.61272E-01 0.55622E-01 0.48950E-01 0.42214E-01 0.36406E-01 0.32107E-01 0.29378E-01 0.27954E-01
 0.27525E-01 0.27954E-01 0.29378E-01 0.32107E-01 0.36406E-01 0.42214E-01 0.48950E-01 0.55622E-01 0.61272E-01 0.65359E-01
 0.67802E-01 0.68809E-01 0.68821E-01 0.68694E-01 0.69932E-01 0.74819E-01 0.86622E-01 0.11017     0.15247     0.22173    
 0.32231     0.44667     0.57410     0.68308     0.76401     0.81897     0.85459     0.87704     0.89061     0.89789    
 0.88832     0.88452     0.87246     0.85008     0.81361     0.75756     0.67621     0.56829     0.44347     0.32231    
 0.22426     0.15628     0.11426     0.90488E-01 0.78360E-01 0.73271E-01 0.72076E-01 0.72518E-01 0.73027E-01 0.72669E-01
 0.70991E-01 0.67802E-01 0.63081E-01 0.57084E-01 0.50472E-01 0.44194E-01 0.39097E-01 0.35582E-01 0.33564E-01 0.32650E-01
 0.32408E-01 0.32650E-01 0.33564E-01 0.35582E-01 0.39097E-01 0.44194E-01 0.50472E-01 0.57084E-01 0.63081E-01 0.67802E-01
 0.70991E-01 0.72669E-01 0.73027E-01 0.72518E-01 0.72076E-01 0.73271E-01 0.78360E-01 0.90488E-01 0.11426     0.15628    
 0.22426     0.32231     0.44347     0.56829     0.67621     0.75756     0.81361     0.85008     0.87246     0.88452    
 0.85462     0.84854     0.82935     0.79417     0.73853     0.65805     0.55264     0.43213     0.31583     0.22173    
 0.15628     0.11560     0.92443E-01 0.80561E-01 0.75588E-01 0.74534E-01 0.75238E-01 0.76148E-01 0.76285E-01 0.75173E-01
 0.72669E-01 0.68809E-01 0.63792E-01 0.58057E-01 0.52323E-01 0.47416E-01 0.43954E-01 0.42122E-01 0.41637E-01 0.41846E-01
 0.42025E-01 0.41846E-01 0.41637E-01 0.42122E-01 0.43954E-01 0.47416E-01 0.52323E-01 0.58057E-01 0.63792E-01 0.68809E-01
 0.72669E-01 0.75173E-01 0.76285E-01 0.76148E-01 0.75238E-01 0.74534E-01 0.75588E-01 0.80561E-01 0.92443E-01 0.11560    
 0.15628     0.22173     0.31583     0.43213     0.55264     0.65805     0.73853     0.79417     0.82935     0.84854    
 0.78821     0.77873     0.74927     0.69726     0.62044     0.52073     0.40835     0.30074     0.21354     0.15247    
 0.11426     0.92443E-01 0.81316E-01 0.76805E-01 0.76086E-01 0.77108E-01 0.78388E-01 0.78953E-01 0.78298E-01 0.76285E-01
 0.73027E-01 0.68821E-01 0.64138E-01 0.59607E-01 0.55946E-01 0.53803E-01 0.53560E-01 0.55165E-01 0.57967E-01 0.60676E-01
 0.61809E-01 0.60676E-01 0.57967E-01 0.55165E-01 0.53560E-01 0.53803E-01 0.55946E-01 0.59607E-01 0.64138E-01 0.68821E-01
 0.73027E-01 0.76285E-01 0.78298E-01 0.78953E-01 0.78388E-01 0.77108E-01 0.76086E-01 0.76805E-01 0.81316E-01 0.92443E-01
 0.11426     0.15247     0.21354     0.30074     0.40835     0.52073     0.62044     0.69726     0.74927     0.77873    
 0.67448     0.66099     0.62044     0.55378     0.46584     0.36760     0.27424     0.19830     0.14440     0.11017    
 0.90488E-01 0.80561E-01 0.76805E-01 0.76624E-01 0.78080E-01 0.79764E-01 0.80749E-01 0.80531E-01 0.78953E-01 0.76148E-01
 0.72518E-01 0.68694E-01 0.65461E-01 0.63633E-01 0.63956E-01 0.67013E-01 0.73090E-01 0.81843E-01 0.91788E-01 0.10005    
 0.10331     0.10005     0.91788E-01 0.81843E-01 0.73090E-01 0.67013E-01 0.63956E-01 0.63633E-01 0.65461E-01 0.68694E-01
 0.72518E-01 0.76148E-01 0.78953E-01 0.80531E-01 0.80749E-01 0.79764E-01 0.78080E-01 0.76624E-01 0.76805E-01 0.80561E-01
 0.90488E-01 0.11017     0.14440     0.19830     0.27424     0.36760     0.46584     0.55378     0.62044     0.66099    
 0.50993     0.49438     0.45002     0.38403     0.30806     0.23519     0.17514     0.13157     0.10320     0.86622E-01
 0.78360E-01 0.75588E-01 0.76086E-01 0.78080E-01 0.80231E-01 0.81654E-01 0.81879E-01 0.80749E-01 0.78388E-01 0.75238E-01
 0.72076E-01 0.69932E-01 0.69943E-01 0.73226E-01 0.80846E-01 0.93734E-01 0.11230     0.13553     0.15989     0.17912    
 0.18652     0.17912     0.15989     0.13553     0.11230     0.93734E-01 0.80846E-01 0.73226E-01 0.69943E-01 0.69932E-01
 0.72076E-01 0.75238E-01 0.78388E-01 0.80749E-01 0.81879E-01 0.81654E-01 0.80231E-01 0.78080E-01 0.76086E-01 0.75588E-01
 0.78360E-01 0.86622E-01 0.10320     0.13157     0.17514     0.23519     0.30806     0.38403     0.45002     0.49438    
 0.32857     0.31576     0.28117     0.23440     0.18642     0.14519     0.11417     0.93298E-01 0.80864E-01 0.74819E-01
 0.73271E-01 0.74534E-01 0.77108E-01 0.79764E-01 0.81654E-01 0.82327E-01 0.81654E-01 0.79764E-01 0.77108E-01 0.74534E-01
 0.73271E-01 0.74819E-01 0.80864E-01 0.93298E-01 0.11417     0.14519     0.18642     0.23440     0.28117     0.31576    
 0.32857     0.31576     0.28117     0.23440     0.18642     0.14519     0.11417     0.93298E-01 0.80864E-01 0.74819E-01
 0.73271E-01 0.74534E-01 0.77108E-01 0.79764E-01 0.81654E-01 0.82327E-01 0.81654E-01 0.79764E-01 0.77108E-01 0.74534E-01
 0.73271E-01 0.74819E-01 0.80864E-01 0.93298E-01 0.11417     0.14519     0.18642     0.23440     0.28117     0.31576    
 0.18652     0.17912     0.15989     0.13553     0.11230     0.93734E-01 0.80846E-01 0.73226E-01 0.69943E-01 0.69932E-01
 0.72076E-01 0.75238E-01 0.78388E-01 0.80749E-01 0.81879E-01 0.81654E-01 0.80231E-01 0.78080E-01 0.76086E-01 0.75588E-01
 0.78360E-01 0.86622E-01 0.10320     0.13157     0.17514     0.23519     0.30806     0.38403     0.45002     0.49438    
 0.50993     0.49438     0.45002     0.38403     0.30806     0.23519     0.17514     0.13157     0.10320     0.86622E-01
 0.78360E-01 0.75588E-01 0.76086E-01 0.78080E-01 0.80231E-01 0.81654E-01 0.81879E-01 0.80749E-01 0.78388E-01 0.75238E-01
 0.72076E-01 0.69932E-01 0.69943E-01 0.73226E-01 0.80846E-01 0.93734E-01 0.11230     0.13553     0.15989     0.17912    
 0.10331     0.10005     0.91788E-01 0.81843E-01 0.73090E-01 0.67013E-01 0.63956E-01 0.63633E-01 0.65461E-01 0.68694E-01
 0.72518E-01 0.76148E-01 0.78953E-01 0.80531E-01 0.80749E-01 0.79764E-01 0.78080E-01 0.76624E-01 0.76805E-01 0.80561E-01
 0.90488E-01 0.11017     0.14440     0.19830     0.27424     0.36760     0.46584     0.55378     0.62044     0.66099    
 0.67448     0.66099     0.62044     0.55378     0.46584     0.36760     0.27424     0.19830     0.14440     0.11017    
 0.90488E-01 0.80561E-01 0.76805E-01 0.76624E-01 0.78080E-01 0.79764E-01 0.80749E-01 0.80531E-01 0.78953E-01 0.76148E-01
 0.72518E-01 0.68694E-01 0.65461E-01 0.63633E-01 0.63956E-01 0.67013E-01 0.73090E-01 0.81843E-01 0.91788E-01 0.10005    
 0.61809E-01 0.60676E-01 0.57967E-01 0.55165E-01 0.53560E-01 0.53803E-01 0.55946E-01 0.59607E-01 0.64138E-01 0.68821E-01
 0.73027E-01 0.76285E-01 0.78298E-01 0.78953E-01 0.78388E-01 0.77108E-01 0.76086E-01 0.76805E-01 0.81316E-01 0.92443E-01
 0.11426     0.15247     0.21354     0.30074     0.40835     0.52073     0.62044     0.69726     0.74927     0.77873    
 0.78821     0.77873     0.74927     0.69726     0.62044     0.52073     0.40835     0.30074     0.21354     0.15247    
 0.11426     0.92443E-01 0.81316E-01 0.76805E-01 0.76086E-01 0.77108E-01 0.78388E-01 0.78953E-01 0.78298E-01 0.76285E-01
 0.73027E-01 0.68821E-01 0.64138E-01 0.59607E-01 0.55946E-01 0.53803E-01 0.53560E-01 0.55165E-01 0.57967E-01 0.60676E-01
 0.42025E-01 0.41846E-01 0.41637E-01 0.42122E-01 0.43954E-01 0.47416E-01 0.52323E-01 0.58057E-01 0.63792E-01 0.68809E-01
 0.72669E-01 0.75173E-01 0.76285E-01 0.76148E-01 0.75238E-01 0.74534E-01 0.75588E-01 0.80561E-01 0.92443E-01 0.11560    
 0.15628     0.22173     0.31583     0.43213     0.55264     0.65805     0.73853     0.79417     0.82935     0.84854    
 0.85462     0.84854     0.82935     0.79417     0.73853     0.65805     0.55264     0.43213     0.31583     0.22173    
 0.15628     0.11560     0.92443E-01 0.80561E-01 0.75588E-01 0.74534E-01 0.75238E-01 0.76148E-01 0.76285E-01 0.75173E-01
 0.72669E-01 0.68809E-01 0.63792E-01 0.58057E-01 0.52323E-01 0.47416E-01 0.43954E-01 0.42122E-01 0.41637E-01 0.41846E-01
 0.32408E-01 0.32650E-01 0.33564E-01 0.35582E-01 0.39097E-01 0.44194E-01 0.50472E-01 0.57084E-01 0.63081E-01 0.67802E-01
 0.70991E-01 0.72669E-01 0.73027E-01 0.72518E-01 0.72076E-01 0.73271E-01 0.78360E-01 0.90488E-01 0.11426     0.15628    
 0.22426     0.32231     0.44347     0.56829     0.67621     0.75756     0.81361     0.85008     0.87246     0.88452    
 0.88832     0.88452     0.87246     0.85008     0.81361     0.75756     0.67621     0.56829     0.44347     0.32231    
 0.22426     0.15628     0.11426     0.90488E-01 0.78360E-01 0.73271E-01 0.72076E-01 0.72518E-01 0.73027E-01 0.72669E-01
 0.70991E-01 0.67802E-01 0.63081E-01 0.57084E-01 0.50472E-01 0.44194E-01 0.39097E-01 0.35582E-01 0.33564E-01 0.32650E-01
 0.27525E-01 0.27954E-01 0.29378E-01 0.32107E-01 0.36406E-01 0.42214E-01 0.48950E-01 0.55622E-01 0.61272E-01 0.65359E-01
 0.67802E-01 0.68809E-01 0.68821E-01 0.68694E-01 0.69932E-01 0.74819E-01 0.86622E-01 0.11017     0.15247     0.22173    
 0.32231     0.44667     0.57410     0.68308     0.76401     0.81897     0.85459     0.87704     0.89061     0.89789    
 0.90018     0.89789     0.89061     0.87704     0.85459     0.81897     0.76401     0.68308     0.57410     0.44667    
 0.32231     0.22173     0.15247     0.11017     0.86622E-01 0.74819E-01 0.69932E-01 0.68694E-01 0.68821E-01 0.68809E-01
 0.67802E-01 0.65359E-01 0.61272E-01 0.55622E-01 0.48950E-01 0.42214E-01 0.36406E-01 0.32107E-01 0.29378E-01 0.27954E-01
 0.24957E-01 0.25465E-01 0.27099E-01 0.30103E-01 0.34640E-01 0.40511E-01 0.47004E-01 0.53103E-01 0.57976E-01 0.61272E-01
 0.63081E-01 0.63792E-01 0.64138E-01 0.65461E-01 0.69943E-01 0.80864E-01 0.10320     0.14440     0.21354     0.31583    
 0.44347     0.57410     0.68461     0.76509     0.81827     0.85154     0.87170     0.88359     0.89026     0.89360    
 0.89461     0.89360     0.89026     0.88359     0.87170     0.85154     0.81827     0.76509     0.68461     0.57410    
 0.44347     0.31583     0.21354     0.14440     0.10320     0.80864E-01 0.69943E-01 0.65461E-01 0.64138E-01 0.63792E-01
 0.63081E-01 0.61272E-01 0.57976E-01 0.53103E-01 0.47004E-01 0.40511E-01 0.34640E-01 0.30103E-01 0.27099E-01 0.25465E-01
 0.23563E-01 0.24091E-01 0.25765E-01 0.28766E-01 0.33142E-01 0.38555E-01 0.44228E-01 0.49269E-01 0.53103E-01 0.55622E-01
 0.57084E-01 0.58057E-01 0.59607E-01 0.63633E-01 0.73226E-01 0.93298E-01 0.13157     0.19830     0.30074     0.43213    
 0.56829     0.68308     0.76509     0.81728     0.84778     0.86396     0.87103     0.87262     0.87144     0.86969    
 0.86892     0.86969     0.87144     0.87262     0.87103     0.86396     0.84778     0.81728     0.76509     0.68308    
 0.56829     0.43213     0.30074     0.19830     0.13157     0.93298E-01 0.73226E-01 0.63633E-01 0.59607E-01 0.58057E-01
 0.57084E-01 0.55622E-01 0.53103E-01 0.49269E-01 0.44228E-01 0.38555E-01 0.33142E-01 0.28766E-01 0.25765E-01 0.24091E-01
 0.22653E-01 0.23164E-01 0.24767E-01 0.27563E-01 0.31467E-01 0.36020E-01 0.40487E-01 0.44228E-01 0.47004E-01 0.48950E-01
 0.50472E-01 0.52323E-01 0.55946E-01 0.63956E-01 0.80846E-01 0.11417     0.17514     0.27424     0.40835     0.55264    
 0.67621     0.76401     0.81827     0.84778     0.86041     0.86135     0.85396     0.84118     0.82673     0.81520    
 0.81078     0.81520     0.82673     0.84118     0.85396     0.86135     0.86041     0.84778     0.81827     0.76401    
 0.67621     0.55264     0.40835     0.27424     0.17514     0.11417     0.80846E-01 0.63956E-01 0.55946E-01 0.52323E-01
 0.50472E-01 0.48950E-01 0.47004E-01 0.44228E-01 0.40487E-01 0.36020E-01 0.31467E-01 0.27563E-01 0.24767E-01 0.23164E-01
 0.21712E-01 0.22188E-01 0.23651E-01 0.26106E-01 0.29340E-01 0.32841E-01 0.36020E-01 0.38555E-01 0.40511E-01 0.42214E-01
 0.44194E-01 0.47416E-01 0.53803E-01 0.67013E-01 0.93734E-01 0.14519     0.23519     0.36760     0.52073     0.65805    
 0.75756     0.81897     0.85154     0.86396     0.86135     0.84579     0.81810     0.78060     0.73995     0.70759    
 0.69515     0.70759     0.73995     0.78060     0.81810     0.84579     0.86135     0.86396     0.85154     0.81897    
 0.75756     0.65805     0.52073     0.36760     0.23519     0.14519     0.93734E-01 0.67013E-01 0.53803E-01 0.47416E-01
 0.44194E-01 0.42214E-01 0.40511E-01 0.38555E-01 0.36020E-01 0.32841E-01 0.29340E-01 0.26106E-01 0.23651E-01 0.22188E-01
 0.20455E-01 0.20892E-01 0.22196E-01 0.24271E-01 0.26811E-01 0.29340E-01 0.31467E-01 0.33142E-01 0.34640E-01 0.36406E-01
 0.39097E-01 0.43954E-01 0.53560E-01 0.73090E-01 0.11230     0.18642     0.30806     0.46584     0.62044     0.73853    
 0.81361     0.85459     0.87170     0.87103     0.85396     0.81810     0.75982     0.68020     0.59324     0.52512    
 0.49950     0.52512     0.59324     0.68020     0.75982     0.81810     0.85396     0.87103     0.87170     0.85459    
 0.81361     0.73853     0.62044     0.46584     0.30806     0.18642     0.11230     0.73090E-01 0.53560E-01 0.43954E-01
 0.39097E-01 0.36406E-01 0.34640E-01 0.33142E-01 0.31467E-01 0.29340E-01 0.26811E-01 0.24271E-01 0.22196E-01 0.20892E-01
 0.18942E-01 0.19347E-01 0.20516E-01 0.22273E-01 0.24271E-01 0.26106E-01 0.27563E-01 0.28766E-01 0.30103E-01 0.32107E-01
 0.35582E-01 0.42122E-01 0.55165E-01 0.81843E-01 0.13553     0.23440     0.38403     0.55378     0.69726     0.79417    
 0.85008     0.87704     0.88359     0.87262     0.84118     0.78060     0.68020     0.54234     0.40075     0.30220    
 0.26861     0.30220     0.40075     0.54234     0.68020     0.78060     0.84118     0.87262     0.88359     0.87704    
 0.85008     0.79417     0.69726     0.55378     0.38403     0.23440     0.13553     0.81843E-01 0.55165E-01 0.42122E-01
 0.35582E-01 0.32107E-01 0.30103E-01 0.28766E-01 0.27563E-01 0.26106E-01 0.24271E-01 0.22273E-01 0.20516E-01 0.19347E-01
 0.17494E-01 0.17877E-01 0.18958E-01 0.20516E-01 0.22196E-01 0.23651E-01 0.24767E-01 0.25765E-01 0.27099E-01 0.29378E-01
 0.33564E-01 0.41637E-01 0.57967E-01 0.91788E-01 0.15989     0.28117     0.45002     0.62044     0.74927     0.82935    
 0.87246     0.89061     0.89026     0.87144     0.82673     0.73995     0.59324     0.40075     0.23169     0.13773    
 0.11067     0.13773     0.23169     0.40075     0.59324     0.73995     0.82673     0.87144     0.89026     0.89061    
 0.87246     0.82935     0.74927     0.62044     0.45002     0.28117     0.15989     0.91788E-01 0.57967E-01 0.41637E-01
 0.33564E-01 0.29378E-01 0.27099E-01 0.25765E-01 0.24767E-01 0.23651E-01 0.22196E-01 0.20516E-01 0.18958E-01 0.17877E-01
 0.16467E-01 0.16839E-01 0.17877E-01 0.19347E-01 0.20892E-01 0.22188E-01 0.23164E-01 0.24091E-01 0.25465E-01 0.27954E-01
 0.32650E-01 0.41846E-01 0.60676E-01 0.10005     0.17912     0.31576     0.49438     0.66099     0.77873     0.84854    
 0.88452     0.89789     0.89360     0.86969     0.81520     0.70759     0.52512     0.30220     0.13773     0.64766E-01
 0.46956E-01 0.64766E-01 0.13773     0.30220     0.52512     0.70759     0.81520     0.86969     0.89360     0.89789    
 0.88452     0.84854     0.77873     0.66099     0.49438     0.31576     0.17912     0.10005     0.60676E-01 0.41846E-01
 0.32650E-01 0.27954E-01 0.25465E-01 0.24091E-01 0.23164E-01 0.22188E-01 0.20892E-01 0.19347E-01 0.17877E-01 0.16839E-01
 0.16099E-01 0.16467E-01 0.17494E-01 0.18942E-01 0.20455E-01 0.21712E-01 0.22653E-01 0.23563E-01 0.24957E-01 0.27525E-01
 0.32408E-01 0.42025E-01 0.61809E-01 0.10331     0.18652     0.32857     0.50993     0.67448     0.78821     0.85462    
 0.88832     0.90018     0.89461     0.86892     0.81078     0.69515     0.49950     0.26861     0.11067     0.46956E-01
 0.32476E-01 0.46956E-01 0.11067     0.26861     0.49950     0.69515     0.81078     0.86892     0.89461     0.90018    
 0.88832     0.85462     0.78821     0.67448     0.50993     0.32857     0.18652     0.10331     0.61809E-01 0.42025E-01
 0.32408E-01 0.27525E-01 0.24957E-01 0.23563E-01 0.22653E-01 0.21712E-01 0.20455E-01 0.18942E-01 0.17494E-01 0.16467E-01
 0.16467E-01 0.16839E-01 0.17877E-01 0.19347E-01 0.20892E-01 0.22188E-01 0.23164E-01 0.24091E-01 0.25465E-01 0.27954E-01
 0.32650E-01 0.41846E-01 0.60676E-01 0.10005     0.17912     0.31576     0.49438     0.66099     0.77873     0.84854    
 0.88452     0.89789     0.89360     0.86969     0.81520     0.70759     0.52512     0.30220     0.13773     0.64766E-01
 0.46956E-01 0.64766E-01 0.13773     0.30220     0.52512     0.70759     0.81520     0.86969     0.89360     0.89789    
 0.88452     0.84854     0.77873     0.66099     0.49438     0.31576     0.17912     0.10005     0.60676E-01 0.41846E-01
 0.32650E-01 0.27954E-01 0.25465E-01 0.24091E-01 0.23164E-01 0.22188E-01 0.20892E-01 0.19347E-01 0.17877E-01 0.16839E-01
 0.17494E-01 0.17877E-01 0.18958E-01 0.20516E-01 0.22196E-01 0.23651E-01 0.24767E-01 0.25765E-01 0.27099E-01 0.29378E-01
 0.33564E-01 0.41637E-01 0.57967E-01 0.91788E-01 0.15989     0.28117     0.45002     0.62044     0.74927     0.82935    
 0.87246     0.89061     0.89026     0.87144     0.82673     0.73995     0.59324     0.40075     0.23169     0.13773    
 0.11067     0.13773     0.23169     0.40075     0.59324     0.73995     0.82673     0.87144     0.89026     0.89061    
 0.87246     0.82935     0.74927     0.62044     0.45002     0.28117     0.15989     0.91788E-01 0.57967E-01 0.41637E-01
 0.33564E-01 0.29378E-01 0.27099E-01 0.25765E-01 0.24767E-01 0.23651E-01 0.22196E-01 0.20516E-01 0.18958E-01 0.17877E-01
 0.18942E-01 0.19347E-01 0.20516E-01 0.22273E-01 0.24271E-01 0.26106E-01 0.27563E-01 0.28766E-01 0.30103E-01 0.32107E-01
 0.35582E-01 0.42122E-01 0.55165E-01 0.81843E-01 0.13553     0.23440     0.38403     0.55378     0.69726     0.79417    
 0.85008     0.87704     0.88359     0.87262     0.84118     0.78060     0.68020     0.54234     0.40075     0.30220    
 0.26861     0.30220     0.40075     0.54234     0.68020     0.78060     0.84118     0.87262     0.88359     0.87704    
 0.85008     0.79417     0.69726     0.55378     0.38403     0.23440     0.13553     0.81843E-01 0.55165E-01 0.42122E-01
 0.35582E-01 0.32107E-01 0.30103E-01 0.28766E-01 0.27563E-01 0.26106E-01 0.24271E-01 0.22273E-01 0.20516E-01 0.19347E-01
 0.20455E-01 0.20892E-01 0.22196E-01 0.24271E-01 0.26811E-01 0.29340E-01 0.31467E-01 0.33142E-01 0.34640E-01 0.36406E-01
 0.39097E-01 0.43954E-01 0.53560E-01 0.73090E-01 0.11230     0.18642     0.30806     0.46584     0.62044     0.73853    
 0.81361     0.85459     0.87170     0.87103     0.85396     0.81810     0.75982     0.68020     0.59324     0.52512    
 0.49950     0.52512     0.59324     0.68020     0.75982     0.81810     0.85396     0.87103     0.87170     0.85459    
 0.81361     0.73853     0.62044     0.46584     0.30806     0.18642     0.11230     0.73090E-01 0.53560E-01 0.43954E-01
 0.39097E-01 0.36406E-01 0.34640E-01 0.33142E-01 0.31467E-01 0.29340E-01 0.26811E-01 0.24271E-01 0.22196E-01 0.20892E-01
 0.21712E-01 0.22188E-01 0.23651E-01 0.26106E-01 0.29340E-01 0.32841E-01 0.36020E-01 0.38555E-01 0.40511E-01 0.42214E-01
 0.44194E-01 0.47416E-01 0.53803E-01 0.67013E-01 0.93734E-01 0.14519     0.23519     0.36760     0.52073     0.65805    
 0.75756     0.81897     0.85154     0.86396     0.86135     0.84579     0.81810     0.78060     0.73995     0.70759    
 0.69515     0.70759     0.73995     0.78060     0.81810     0.84579     0.86135     0.86396     0.85154     0.81897    
 0.75756     0.65805     0.52073     0.36760     0.23519     0.14519     0.93734E-01 0.67013E-01 0.53803E-01 0.47416E-01
 0.44194E-01 0.42214E-01 0.40511E-01 0.38555E-01 0.36020E-01 0.32841E-01 0.29340E-01 0.26106E-01 0.23651E-01 0.22188E-01
 0.22653E-01 0.23164E-01 0.24767E-01 0.27563E-01 0.31467E-01 0.36020E-01 0.40487E-01 0.44228E-01 0.47004E-01 0.48950E-01
 0.50472E-01 0.52323E-01 0.55946E-01 0.63956E-01 0.80846E-01 0.11417     0.17514     0.27424     0.40835     0.55264    
 0.67621     0.76401     0.81827     0.84778     0.86041     0.86135     0.85396     0.84118     0.82673     0.81520    
 0.81078     0.81520     0.82673     0.84118     0.85396     0.86135     0.86041     0.84778     0.81827     0.76401    
 0.67621     0.55264     0.40835     0.27424     0.17514     0.11417     0.80846E-01 0.63956E-01 0.55946E-01 0.52323E-01
 0.50472E-01 0.48950E-01 0.47004E-01 0.44228E-01 0.40487E-01 0.36020E-01 0.31467E-01 0.27563E-01 0.24767E-01 0.23164E-01
 0.23563E-01 0.24091E-01 0.25765E-01 0.28766E-01 0.33142E-01 0.38555E-01 0.44228E-01 0.49269E-01 0.53103E-01 0.55622E-01
 0.57084E-01 0.58057E-01 0.59607E-01 0.63633E-01 0.73226E-01 0.93298E-01 0.13157     0.19830     0.30074     0.43213    
 0.56829     0.68308     0.76509     0.81728     0.84778     0.86396     0.87103     0.87262     0.87144     0.86969    
 0.86892     0.86969     0.87144     0.87262     0.87103     0.86396     0.84778     0.81728     0.76509     0.68308    
 0.56829     0.43213     0.30074     0.19830     0.13157     0.93298E-01 0.73226E-01 0.63633E-01 0.59607E-01 0.58057E-01
 0.57084E-01 0.55622E-01 0.53103E-01 0.49269E-01 0.44228E-01 0.38555E-01 0.33142E-01 0.28766E-01 0.25765E-01 0.24091E-01
 0.24957E-01 0.25465E-01 0.27099E-01 0.30103E-01 0.34640E-01 0.40511E-01 0.47004E-01 0.53103E-01 0.57976E-01 0.61272E-01
 0.63081E-01 0.63792E-01 0.64138E-01 0.65461E-01 0.69943E-01 0.80864E-01 0.10320     0.14440     0.21354     0.31583    
 0.44347     0.57410     0.68461     0.76509     0.81827     0.85154     0.87170     0.88359     0.89026     0.89360    
 0.89461     0.89360     0.89026     0.88359     0.87170     0.85154     0.81827     0.76509     0.68461     0.57410    
 0.44347     0.31583     0.21354     0.14440     0.10320     0.80864E-01 0.69943E-01 0.65461E-01 0.64138E-01 0.63792E-01
 0.63081E-01 0.61272E-01 0.57976E-01 0.53103E-01 0.47004E-01 0.40511E-01 0.34640E-01 0.30103E-01 0.27099E-01 0.25465E-01
 0.27525E-01 0.27954E-01 0.29378E-01 0.32107E-01 0.36406E-01 0.42214E-01 0.48950E-01 0.55622E-01 0.61272E-01 0.65359E-01
 0.67802E-01 0.68809E-01 0.68821E-01 0.68694E-01 0.69932E-01 0.74819E-01 0.86622E-01 0.11017     0.15247     0.22173    
 0.32231     0.44667     0.57410     0.68308     0.76401     0.81897     0.85459     0.87704     0.89061     0.89789    
 0.90018     0.89789     0.89061     0.87704     0.85459     0.81897     0.76401     0.68308     0.57410     0.44667    
 0.32231     0.22173     0.15247     0.11017     0.86622E-01 0.74819E-01 0.69932E-01 0.68694E-01 0.68821E-01 0.68809E-01
 0.67802E-01 0.65359E-01 0.61272E-01 0.55622E-01 0.48950E-01 0.42214E-01 0.36406E-01 0.32107E-01 0.29378E-01 0.27954E-01
 0.32408E-01 0.32650E-01 0.33564E-01 0.35582E-01 0.39097E-01 0.44194E-01 0.50472E-01 0.57084E-01 0.63081E-01 0.67802E-01
 0.70991E-01 0.72669E-01 0.73027E-01 0.72518E-01 0.72076E-01 0.73271E-01 0.78360E-01 0.90488E-01 0.11426     0.15628    