CRYSTAL
PRIMVEC
 4.86330350000000 0.00000000000000 0.00000000000000
 0.00000000000000 4.86330350000000 0.00000000000000
 0.00000000000000 0.00000000000000 4.86330350000000
PRIMCOORD
 12 1
 58     0.00000000000000     0.00000000000000     0.00000000000000
 58     0.00000000000000     2.43165170000000     2.43165170000000
 58     2.43165170000000     0.00000000000000     2.43165170000000
 58     2.43165170000000     2.43165170000000     0.00000000000000
  8     1.21582590000000     3.64747760000000     3.64747760000000
  8     3.64747760000000     1.21582590000000     1.21582590000000
  8     1.21582590000000     1.21582590000000     1.21582590000000
  8     3.64747760000000     3.64747760000000     3.64747760000000
  8     3.64747760000000     3.64747760000000     1.21582590000000
  8     1.21582590000000     1.21582590000000     3.64747760000000
  8     3.64747760000000     1.21582590000000     3.64747760000000
  8     1.21582590000000     3.64747760000000     1.21582590000000
BEGIN_BLOCK_DATAGRID_3D
 data
 BEGIN_DATAGRID_3Dgrid#1
  61 61 61
  0.000000 0.000000 0.000000
  4.863303 0.000000 0.000000
  0.000000 4.863303 0.000000
  0.000000 0.000000 4.863303
   169.206294 176.443120 200.072840 237.841960 278.188667 306.112939 309.458752 285.009357 239.376180 184.484969 131.584736 87.683495 55.198319 33.346479 19.830737 12.056350 7.828800 5.601485 4.422402 3.758546 3.330617 3.002213 2.712744 2.439559 2.178364 1.933798 1.714719 1.530930 1.390223 1.297955 1.254627 1.254627 1.297955 1.390223 1.530930 1.714720 1.933798 2.178364 2.439559 2.712744 3.002213 3.330617 3.758547 4.422402 5.601486 7.828802 12.056354 19.830744 33.346490 55.198336 87.683519 131.584767 184.485004 239.376213 285.009380 309.458759 306.112928 278.188644 237.841934 200.072820 176.443111
   176.443120 183.411318 206.056917 241.922061 279.612758 304.685284 305.743028 280.095624 234.416321 180.288651 128.493047 85.666984 54.029383 32.757814 19.592400 12.006452 7.870093 5.682427 4.517702 3.855627 3.422648 3.085202 2.784608 2.499724 2.227447 1.973388 1.746955 1.557978 1.413941 1.319807 1.275717 1.275717 1.319807 1.413941 1.557978 1.746955 1.973388 2.227447 2.499724 2.784608 3.085202 3.422648 3.855628 4.517703 5.682428 7.870095 12.006455 19.592406 32.757825 54.029399 85.667007 128.493077 180.288685 234.416354 280.095647 305.743035 304.685274 279.612735 241.922035 206.056897 183.411309
   200.072840 206.056917 225.168454 254.386190 283.072647 298.737047 292.437633 263.119587 217.543849 166.129156 118.104046 78.895673 50.101578 30.770640 18.779631 11.830396 8.005860 5.956300 4.842955 4.188072 3.737898 3.369058 3.029650 2.703910 2.393054 2.105974 1.853831 1.646611 1.490850 1.390156 1.343346 1.343346 1.390156 1.490851 1.646611 1.853831 2.105974 2.393054 2.703911 3.029650 3.369058 3.737898 4.188073 4.842956 5.956301 8.005861 11.830399 18.779637 30.770650 50.101594 78.895695 118.104075 166.129188 217.543881 263.119611 292.437642 298.737041 283.072629 254.386168 225.168436 206.056908
   237.841960 241.922061 254.386190 271.702474 285.127808 285.665734 268.178284 233.857970 189.257537 142.761533 101.111622 67.869663 43.722130 27.553444 17.482998 11.586972 8.289224 6.479872 5.458172 4.815347 4.331534 3.902267 3.488507 3.084707 2.700344 2.350239 2.048637 1.805912 1.627030 1.513246 1.460961 1.460961 1.513246 1.627030 1.805912 2.048637 2.350240 2.700345 3.084708 3.488507 3.902268 4.331534 4.815347 5.458172 6.479873 8.289225 11.586975 17.483003 27.553453 43.722143 67.869682 101.111647 142.761562 189.257566 233.857994 268.178299 285.665736 285.127799 271.702460 254.386177 241.922055
   278.188667 279.612758 283.072647 285.127808 280.273557 263.990087 235.186701 196.939987 154.978833 115.107533 81.284216 55.116745 36.398994 23.915292 16.098855 11.462405 8.815331 7.313836 6.410704 5.777489 5.237453 4.712760 4.183583 3.659633 3.162434 2.715225 2.336671 2.037840 1.821645 1.686335 1.625007 1.625007 1.686335 1.821645 2.037841 2.336672 2.715226 3.162435 3.659633 4.183583 4.712760 5.237453 5.777490 6.410704 7.313836 8.815332 11.462407 16.098859 23.915299 36.399004 55.116760 81.284236 115.107557 154.978859 196.940012 235.186721 263.990098 280.273559 285.127804 283.072642 279.612755
   306.112939 304.685284 298.737047 285.665734 263.990087 233.673618 196.914817 157.695787 120.316291 87.978042 62.188326 42.985131 29.526204 20.610793 15.010348 11.651972 9.694937 8.532398 7.756454 7.117994 6.489022 5.825424 5.132957 4.441431 3.787764 3.205753 2.719477 2.340965 2.070808 1.903840 1.829100 1.829100 1.903840 2.070808 2.340965 2.719477 3.205754 3.787764 4.441431 5.132958 5.825425 6.489023 7.117994 7.756454 8.532399 9.694938 11.651974 15.010351 20.610798 29.526211 42.985142 62.188341 87.978062 120.316313 157.695812 196.914840 233.673637 263.990100 285.665741 298.737050 304.685285
   309.458752 305.743028 292.437633 268.178284 235.186701 196.914817 157.510353 120.842069 89.560981 64.750460 46.205759 33.005456 24.013797 18.153186 14.504309 12.324625 11.036705 10.209870 9.546528 8.870308 8.105861 7.249649 6.339049 5.428256 4.572168 3.816337 3.190629 2.707972 2.366383 2.157019 2.064177 2.064177 2.157019 2.366383 2.707972 3.190629 3.816338 4.572168 5.428257 6.339050 7.249650 8.105862 8.870308 9.546528 10.209871 11.036705 12.324626 14.504311 18.153189 24.013802 33.005463 46.205770 64.750475 89.560999 120.842091 157.510377 196.914841 235.186722 268.178300 292.437643 305.743032
   285.009357 280.095624 263.119587 233.857970 196.939987 157.695787 120.842069 89.513712 64.959305 46.910845 34.277325 25.765954 20.235302 16.791524 14.757280 13.608472 12.929698 12.402227 11.809811 11.042059 10.080157 8.967507 7.778654 6.595751 5.492920 4.527220 3.733582 3.125152 2.696766 2.435557 2.320489 2.320489 2.435557 2.696766 3.125152 3.733583 4.527220 5.492921 6.595752 7.778654 8.967507 10.080157 11.042059 11.809811 12.402228 12.929699 13.608473 14.757281 16.791526 20.235305 25.765959 34.277332 46.910855 64.959319 89.513730 120.842091 157.695811 196.940010 233.857990 263.119601 280.095630
   239.376180 234.416321 217.543849 189.257537 154.978833 120.316291 89.560981 64.959305 46.857081 34.389833 26.242734 21.165751 18.182188 16.585579 15.855637 15.580485 15.422288 15.124922 14.533059 13.599062 12.364513 10.925308 9.397853 7.894306 6.507637 5.304580 4.322956 3.574368 3.049303 2.730341 2.590588 2.590588 2.730342 3.049303 3.574368 4.322957 5.304581 6.507638 7.894307 9.397854 10.925309 12.364514 13.599063 14.533059 15.124922 15.422289 15.580485 15.855638 16.585579 18.182190 21.165754 26.242739 34.389840 46.857091 64.959319 89.560999 120.316312 154.978855 189.257557 217.543864 234.416328
   184.484969 180.288651 166.129156 142.761533 115.107533 87.978042 64.750460 46.910845 34.389833 26.264723 21.393598 18.777275 17.660246 17.483557 17.804027 18.244504 18.491192 18.323232 17.637440 16.448228 14.860605 13.027734 11.110186 9.250145 7.557365 6.104720 4.929199 4.037833 3.415019 3.037900 2.873331 2.873331 3.037900 3.415019 4.037834 4.929200 6.104721 7.557366 9.250146 11.110187 13.027735 14.860606 16.448229 17.637440 18.323233 18.491192 18.244504 17.804027 17.483557 17.660246 18.777276 21.393600 26.264728 34.389840 46.910855 64.750474 87.978059 115.107551 142.761551 166.129169 180.288657
   131.584736 128.493047 118.104046 101.111622 81.284216 62.188326 46.205759 34.277325 26.242734 21.393598 18.915937 18.107571 18.408815 19.350541 20.508549 21.498267 22.008464 21.846487 20.959567 19.425640 17.414487 15.137421 12.799965 10.571624 8.574500 6.882512 5.526656 4.505615 3.795434 3.366725 3.180134 3.180134 3.366725 3.795434 4.505615 5.526657 6.882513 8.574501 10.571625 12.799967 15.137423 17.414488 19.425641 20.959568 21.846487 22.008464 21.498266 20.508549 19.350540 18.408815 18.107571 18.915938 21.393600 26.242739 34.277332 46.205769 62.188339 81.284229 101.111635 118.104056 128.493051
   87.683495 85.666984 78.895673 67.869663 55.116745 42.985131 33.005456 25.765954 21.165751 18.777275 18.107571 18.699692 20.125905 21.954646 23.749650 25.109024 25.726073 25.439071 24.248398 22.297273 19.819491 17.082235 14.331857 11.760161 9.494984 7.604178 6.106914 4.989216 4.216239 3.751121 3.548950 3.548950 3.751121 4.216239 4.989216 6.106915 7.604179 9.494985 11.760162 14.331859 17.082236 19.819492 22.297275 24.248399 25.439072 25.726073 25.109023 23.749649 21.954645 20.125904 18.699692 18.107571 18.777276 21.165754 25.765958 33.005462 42.985139 55.116754 67.869672 78.895680 85.666987
   55.198319 54.029383 50.101578 43.722130 36.398994 29.526204 24.013797 20.235302 18.182188 17.660246 18.408815 20.125905 22.449063 24.951062 27.177557 28.718505 29.283925 28.752371 27.182203 24.778623 21.836727 18.674863 15.570823 12.730319 10.278188 8.268022 6.700767 5.545065 4.752588 4.277778 4.071353 4.071353 4.277778 4.752589 5.545066 6.700768 8.268023 10.278190 12.730321 15.570825 18.674865 21.836729 24.778624 27.182205 28.752372 29.283925 28.718505 27.177556 24.951061 22.449061 20.125904 18.408815 17.660246 18.182189 20.235304 24.013801 29.526208 36.398999 43.722135 50.101582 54.029385
   33.346479 32.757814 30.770640 27.553444 23.915292 20.610793 18.153186 16.791524 16.585579 17.483557 19.350541 21.954646 24.951062 27.903382 30.350043 31.890441 32.265761 31.403499 29.419891 26.582101 23.238788 19.749120 16.413107 13.437664 10.934194 8.933177 7.410450 6.312152 5.572809 5.134551 4.943688 4.943688 5.134551 5.572809 6.312153 7.410451 8.933178 10.934195 13.437665 16.413109 19.749122 23.238790 26.582103 29.419892 31.403500 32.265761 31.890440 30.350042 27.903380 24.951061 21.954644 19.350539 17.483556 16.585579 16.791525 18.153188 20.610796 23.915295 27.553447 30.770642 32.757815
   19.830737 19.592400 18.779631 17.482998 16.098855 15.010348 14.504309 14.757280 15.855637 17.804027 20.508549 23.749650 27.177557 30.350043 32.813245 34.194773 34.279917 33.048378 30.673834 27.480602 23.862606 20.208326 16.826435 13.913016 11.555381 9.752918 8.450618 7.565428 7.005973 6.689822 6.552617 6.552617 6.689822 7.005973 7.565429 8.450619 9.752919 11.555382 13.913018 16.826437 20.208328 23.862608 27.480604 30.673835 33.048379 34.279917 34.194772 32.813244 30.350042 27.177555 23.749648 20.508547 17.804025 15.855636 14.757280 14.504309 15.010349 16.098856 17.482999 18.779632 19.592401
   12.056350 12.006452 11.830396 11.586972 11.462405 11.651972 12.324625 13.608472 15.580485 18.244504 21.498267 25.109024 28.718505 31.890441 34.194773 35.299118 35.041549 33.457508 30.775176 27.366304 23.661950 20.065885 16.882080 14.287176 12.338747 11.004361 10.195631 9.789382 9.644927 9.619143 9.612952 9.612952 9.619143 9.644927 9.789382 10.195632 11.004362 12.338748 14.287178 16.882082 20.065887 23.661952 27.366307 30.775178 33.457510 35.041550 35.299118 34.194772 31.890439 28.718503 25.109021 21.498265 18.244503 15.580484 13.608471 12.324624 11.651972 11.462405 11.586973 11.830396 12.006452
   7.828800 7.870093 8.005860 8.289224 8.815331 9.694937 11.036705 12.929698 15.422288 18.491192 22.008464 25.726073 29.283925 32.265761 34.279917 35.041549 34.444156 32.580051 29.727336 26.295811 22.740002 19.465638 16.765093 14.795396 13.595156 13.114101 13.234957 13.772300 14.480092 15.069647 15.346958 15.346958 15.069647 14.480092 13.772300 13.234957 13.114101 13.595157 14.795397 16.765095 19.465640 22.740005 26.295813 29.727338 32.580053 34.444157 35.041549 34.279916 32.265760 29.283922 25.726070 22.008462 18.491190 15.422287 12.929697 11.036704 9.694936 8.815330 8.289224 8.005859 7.870093
   5.601485 5.682427 5.956300 6.479872 7.313836 8.532398 10.209870 12.402227 15.124922 18.323232 21.846487 25.439071 28.752371 31.403499 33.048378 33.457508 32.580051 30.560382 27.720297 24.494599 21.344847 18.670988 16.757372 15.763781 15.748975 16.682530 18.429040 20.693592 23.012393 24.788910 25.619957 25.619957 24.788909 23.012392 20.693591 18.429039 16.682530 15.748975 15.763781 16.757373 18.670989 21.344849 24.494601 27.720299 30.560383 32.580052 33.457508 33.048377 31.403498 28.752369 25.439069 21.846485 18.323230 15.124920 12.402226 10.209869 8.532398 7.313835 6.479872 5.956300 5.682427
   4.422402 4.517702 4.842955 5.458172 6.410704 7.756454 9.546528 11.809811 14.533059 17.637440 20.959567 24.248398 27.182203 29.419891 30.673834 30.775176 29.727336 27.720297 25.104706 22.324995 19.835905 18.031429 17.214107 17.602326 19.348832 22.505670 26.927077 32.121037 37.220005 41.063923 42.865963 42.865963 41.063921 37.220003 32.121034 26.927074 22.505668 19.348831 17.602326 17.214108 18.031430 19.835906 22.324997 25.104708 27.720299 29.727337 30.775177 30.673833 29.419889 27.182202 24.248396 20.959565 17.637438 14.533057 11.809809 9.546527 7.756453 6.410703 5.458171 4.842955 4.517702
   3.758546 3.855627 4.188072 4.815347 5.777489 7.117994 8.870308 11.042059 13.599062 16.448228 19.425640 22.297273 24.778623 26.582101 27.480602 27.366304 26.295811 24.494599 22.324995 20.222156 18.628028 17.948679 18.558932 20.824214 25.092821 31.570672 40.090750 49.827613 59.255904 66.322344 69.636571 69.636570 66.322341 59.255899 49.827607 40.090745 31.570668 25.092819 20.824212 18.558931 17.948679 18.628029 20.222157 22.324996 24.494600 26.295812 27.366305 27.480602 26.582100 24.778621 22.297272 19.425638 16.448226 13.599061 11.042057 8.870306 7.117993 5.777489 4.815346 4.188072 3.855627
   3.330617 3.422648 3.737898 4.331534 5.237453 6.489022 8.105861 10.080157 12.364513 14.860605 17.414487 19.819491 21.836727 23.238788 23.862606 23.661950 22.740002 21.344847 19.835905 18.628028 18.157985 18.884517 21.331296 26.112543 33.868540 45.003577 59.278745 75.356843 90.776670 102.271746 107.655986 107.655985 102.271742 90.776662 75.356834 59.278736 45.003570 33.868535 26.112539 21.331294 18.884516 18.157985 18.628029 19.835906 21.344848 22.740003 23.661950 23.862605 23.238787 21.836726 19.819489 17.414485 14.860603 12.364512 10.080155 8.105860 6.489022 5.237452 4.331533 3.737897 3.422648
   3.002213 3.085202 3.369058 3.902267 4.712760 5.825424 7.249649 8.967507 10.925308 13.027734 15.137421 17.082235 18.674863 19.749120 20.208326 20.065885 19.465638 18.670988 18.031429 17.948679 18.884517 21.407522 26.266614 34.396465 46.762897 63.929596 85.458486 109.308373 131.888354 148.573810 156.357322 156.357320 148.573803 131.888342 109.308359 85.458473 63.929585 46.762888 34.396460 26.266610 21.407520 18.884516 17.948679 18.031429 18.670988 19.465639 20.065885 20.208325 19.749120 18.674862 17.082233 15.137420 13.027733 10.925307 8.967506 7.249648 5.825423 4.712759 3.902267 3.369058 3.085201
   2.712744 2.784608 3.029650 3.488507 4.183583 5.132957 6.339049 7.778654 9.397853 11.110186 12.799965 14.331857 15.570823 16.413107 16.826435 16.882080 16.765093 16.757372 17.214107 18.558932 21.331296 26.266614 34.373872 46.885731 64.983619 89.188624 118.624488 150.397729 179.850817 201.287368 211.197766 211.197763 201.287359 179.850801 150.397709 118.624469 89.188608 64.983607 46.885722 34.373866 26.266610 21.331294 18.558931 17.214107 16.757372 16.765093 16.882080 16.826435 16.413107 15.570823 14.331856 12.799964 11.110185 9.397852 7.778653 6.339048 5.132957 4.183582 3.488507 3.029650 2.784608
   2.439559 2.499724 2.703910 3.084707 3.659633 4.441431 5.428256 6.595751 7.894306 9.250145 10.571624 11.760161 12.730319 13.437664 13.913016 14.287176 14.795396 15.763781 17.602326 20.824214 26.112543 34.396465 46.885731 64.921229 89.556819 120.839262 157.116265 194.660672 228.262525 252.093922 262.939714 262.939710 252.093911 228.262506 194.660649 157.116242 120.839241 89.556802 64.921217 46.885722 34.396460 26.112539 20.824212 17.602325 15.763780 14.795396 14.287176 13.913016 13.437663 12.730318 11.760160 10.571623 9.250144 7.894305 6.595750 5.428256 4.441430 3.659633 3.084707 2.703910 2.499724
   2.178364 2.227447 2.393054 2.700344 3.162434 3.787764 4.572168 5.492920 6.507637 7.557365 8.574500 9.494984 10.278188 10.934194 11.555381 12.338747 13.595156 15.748975 19.348832 25.092821 33.868540 46.762897 64.983619 89.556819 120.787501 157.613819 197.291535 235.614858 267.910471 289.779851 299.430262 299.430259 289.779841 267.910453 235.614834 197.291509 157.613794 120.787480 89.556802 64.983607 46.762888 33.868534 25.092817 19.348829 15.748973 13.595155 12.338746 11.555381 10.934194 10.278188 9.494983 8.574499 7.557364 6.507636 5.492920 4.572167 3.787763 3.162434 2.700344 2.393054 2.227447
   1.933798 1.973388 2.105974 2.350239 2.715225 3.205753 3.816337 4.527220 5.304580 6.104720 6.882512 7.604178 8.268022 8.933177 9.752918 11.004361 13.114101 16.682530 22.505670 31.570672 45.003577 63.929596 89.188624 120.839262 157.613819 196.683608 234.157350 266.175432 290.111515 304.729360 310.689841 310.689839 304.729352 290.111500 266.175412 234.157326 196.683582 157.613794 120.839241 89.188607 63.929583 45.003568 31.570666 22.505666 16.682528 13.114099 11.004360 9.752918 8.933176 8.268022 7.604178 6.882512 6.104720 5.304580 4.527219 3.816337 3.205753 2.715225 2.350239 2.105974 1.973388
   1.714719 1.746955 1.853831 2.048637 2.336671 2.719477 3.190629 3.733582 4.322956 4.929199 5.526656 6.106914 6.700767 7.410450 8.450618 10.195631 13.234957 18.429040 26.927077 40.090750 59.278745 85.458486 118.624488 157.116265 197.291535 234.157350 263.085109 281.780650 291.129632 294.242942 294.625671 294.625671 294.242939 291.129625 281.780638 263.085090 234.157327 197.291509 157.116240 118.624466 85.458469 59.278731 40.090741 26.927071 18.429036 13.234955 10.195630 8.450617 7.410450 6.700767 6.106914 5.526656 4.929199 4.322956 3.733582 3.190629 2.719477 2.336671 2.048636 1.853831 1.746955
   1.530930 1.557978 1.646611 1.805912 2.037840 2.340965 2.707972 3.125152 3.574368 4.037833 4.505615 4.989216 5.545065 6.312152 7.565428 9.789382 13.772300 20.693592 32.121037 49.827613 75.356843 109.308373 150.397729 194.660672 235.614858 266.175432 281.780650 282.883256 274.751752 264.959962 259.323499 259.323500 264.959965 274.751755 282.883255 281.780642 266.175415 235.614834 194.660644 150.397702 109.308350 75.356825 49.827600 32.121029 20.693587 13.772297 9.789380 7.565427 6.312152 5.545065 4.989215 4.505615 4.037833 3.574368 3.125151 2.707971 2.340964 2.037840 1.805912 1.646611 1.557977
   1.390223 1.413941 1.490850 1.627030 1.821645 2.070808 2.366383 2.696766 3.049303 3.415019 3.795434 4.216239 4.752588 5.572809 7.005973 9.644927 14.480092 23.012393 37.220005 59.255904 90.776670 131.888354 179.850817 228.262525 267.910471 290.111515 291.129632 274.751752 250.544610 229.618284 219.003035 219.003037 229.618293 250.544623 274.751762 291.129634 290.111505 267.910450 228.262496 179.850787 131.888327 90.776648 59.255888 37.219995 23.012386 14.480088 9.644925 7.005972 5.572808 4.752588 4.216238 3.795434 3.415019 3.049303 2.696766 2.366383 2.070808 1.821645 1.627030 1.490850 1.413941
   1.297955 1.319807 1.390156 1.513246 1.686335 1.903840 2.157019 2.435557 2.730341 3.037900 3.366725 3.751121 4.277778 5.134551 6.689822 9.619143 15.069647 24.788910 41.063923 66.322344 102.271746 148.573810 201.287368 252.093922 289.779851 304.729360 294.242942 264.959962 229.618284 201.430585 187.705178 187.705181 201.430598 229.618304 264.959982 294.242953 304.729357 289.779833 252.093893 201.287335 148.573779 102.271721 66.322326 41.063910 24.788902 15.069643 9.619141 6.689821 5.134551 4.277777 3.751120 3.366725 3.037900 2.730341 2.435557 2.157019 1.903840 1.686335 1.513246 1.390155 1.319807
   1.254627 1.275717 1.343346 1.460961 1.625007 1.829100 2.064177 2.320489 2.590588 2.873331 3.180134 3.548950 4.071353 4.943688 6.552617 9.612952 15.346958 25.619957 42.865963 69.636571 107.655986 156.357322 211.197766 262.939714 299.430262 310.689841 294.625671 259.323499 219.003035 187.705178 172.693358 172.693362 187.705192 219.003058 259.323524 294.625688 310.689842 299.430246 262.939685 211.197731 156.357289 107.655959 69.636551 42.865950 25.619949 15.346953 9.612949 6.552616 4.943687 4.071353 3.548950 3.180134 2.873331 2.590587 2.320489 2.064176 1.829100 1.625007 1.460961 1.343346 1.275717
   1.254627 1.275717 1.343346 1.460961 1.625007 1.829100 2.064177 2.320489 2.590588 2.873331 3.180134 3.548950 4.071353 4.943688 6.552617 9.612952 15.346958 25.619957 42.865963 69.636570 107.655985 156.357320 211.197763 262.939710 299.430259 310.689839 294.625671 259.323500 219.003037 187.705181 172.693362 172.693367 187.705196 219.003062 259.323526 294.625689 310.689841 299.430244 262.939681 211.197728 156.357286 107.655957 69.636550 42.865949 25.619949 15.346953 9.612949 6.552616 4.943687 4.071353 3.548950 3.180134 2.873331 2.590587 2.320489 2.064176 1.829100 1.625007 1.460961 1.343346 1.275717
   1.297955 1.319807 1.390156 1.513246 1.686335 1.903840 2.157019 2.435557 2.730342 3.037900 3.366725 3.751121 4.277778 5.134551 6.689822 9.619143 15.069647 24.788909 41.063921 66.322341 102.271742 148.573803 201.287359 252.093911 289.779841 304.729352 294.242939 264.959965 229.618293 201.430598 187.705192 187.705196 201.430612 229.618315 264.959989 294.242954 304.729353 289.779824 252.093882 201.287325 148.573770 102.271715 66.322322 41.063908 24.788901 15.069642 9.619141 6.689821 5.134551 4.277778 3.751121 3.366725 3.037900 2.730341 2.435557 2.157019 1.903840 1.686335 1.513246 1.390156 1.319807
   1.390223 1.413941 1.490851 1.627030 1.821645 2.070808 2.366383 2.696766 3.049303 3.415019 3.795434 4.216239 4.752589 5.572809 7.005973 9.644927 14.480092 23.012392 37.220003 59.255899 90.776662 131.888342 179.850801 228.262506 267.910453 290.111500 291.129625 274.751755 250.544623 229.618304 219.003058 219.003062 229.618315 250.544641 274.751772 291.129634 290.111495 267.910434 228.262478 179.850770 131.888313 90.776639 59.255882 37.219991 23.012384 14.480088 9.644925 7.005972 5.572808 4.752588 4.216239 3.795434 3.415019 3.049303 2.696766 2.366383 2.070808 1.821645 1.627030 1.490850 1.413941
   1.530930 1.557978 1.646611 1.805912 2.037841 2.340965 2.707972 3.125152 3.574368 4.037834 4.505615 4.989216 5.545066 6.312153 7.565429 9.789382 13.772300 20.693591 32.121034 49.827607 75.356834 109.308359 150.397709 194.660649 235.614834 266.175412 281.780638 282.883255 274.751762 264.959982 259.323524 259.323526 264.959989 274.751772 282.883262 281.780637 266.175400 235.614812 194.660621 150.397681 109.308334 75.356814 49.827593 32.121025 20.693585 13.772297 9.789380 7.565428 6.312152 5.545066 4.989216 4.505615 4.037833 3.574368 3.125152 2.707972 2.340965 2.037840 1.805912 1.646611 1.557978
   1.714720 1.746955 1.853831 2.048637 2.336672 2.719477 3.190629 3.733583 4.322957 4.929200 5.526657 6.106915 6.700768 7.410451 8.450619 10.195632 13.234957 18.429039 26.927074 40.090745 59.278736 85.458473 118.624469 157.116242 197.291509 234.157326 263.085090 281.780642 291.129634 294.242953 294.625688 294.625689 294.242954 291.129634 281.780637 263.085079 234.157307 197.291485 157.116217 118.624446 85.458453 59.278721 40.090734 26.927067 18.429035 13.234955 10.195630 8.450618 7.410451 6.700767 6.106915 5.526657 4.929200 4.322957 3.733582 3.190629 2.719477 2.336672 2.048637 1.853831 1.746955
   1.933798 1.973388 2.105974 2.350240 2.715226 3.205754 3.816338 4.527220 5.304581 6.104721 6.882513 7.604179 8.268023 8.933178 9.752919 11.004362 13.114101 16.682530 22.505668 31.570668 45.003570 63.929585 89.188608 120.839241 157.613794 196.683582 234.157327 266.175415 290.111505 304.729357 310.689842 310.689841 304.729353 290.111495 266.175400 234.157307 196.683559 157.613770 120.839219 89.188589 63.929570 45.003559 31.570661 22.505663 16.682526 13.114099 11.004361 9.752919 8.933177 8.268023 7.604179 6.882513 6.104721 5.304580 4.527220 3.816337 3.205753 2.715225 2.350239 2.105974 1.973388
   2.178364 2.227447 2.393054 2.700345 3.162435 3.787764 4.572168 5.492921 6.507638 7.557366 8.574501 9.494985 10.278190 10.934195 11.555382 12.338748 13.595157 15.748975 19.348831 25.092819 33.868535 46.762888 64.983607 89.556802 120.787480 157.613794 197.291509 235.614834 267.910450 289.779833 299.430246 299.430244 289.779824 267.910434 235.614812 197.291485 157.613770 120.787458 89.556784 64.983593 46.762878 33.868527 25.092813 19.348827 15.748972 13.595155 12.338747 11.555382 10.934195 10.278189 9.494985 8.574500 7.557365 6.507637 5.492920 4.572168 3.787764 3.162434 2.700344 2.393054 2.227447
   2.439559 2.499724 2.703911 3.084708 3.659633 4.441431 5.428257 6.595752 7.894307 9.250146 10.571625 11.760162 12.730321 13.437665 13.913018 14.287178 14.795397 15.763781 17.602326 20.824212 26.112539 34.396460 46.885722 64.921217 89.556802 120.839241 157.116240 194.660644 228.262496 252.093893 262.939685 262.939681 252.093882 228.262478 194.660621 157.116217 120.839219 89.556784 64.921203 46.885712 34.396453 26.112535 20.824209 17.602324 15.763780 14.795397 14.287177 13.913017 13.437665 12.730320 11.760161 10.571624 9.250145 7.894306 6.595751 5.428256 4.441431 3.659633 3.084707 2.703911 2.499724
   2.712744 2.784608 3.029650 3.488507 4.183583 5.132958 6.339050 7.778654 9.397854 11.110187 12.799967 14.331859 15.570825 16.413109 16.826437 16.882082 16.765095 16.757373 17.214108 18.558931 21.331294 26.266610 34.373866 46.885722 64.983607 89.188607 118.624466 150.397702 179.850787 201.287335 211.197731 211.197728 201.287325 179.850770 150.397681 118.624446 89.188589 64.983593 46.885712 34.373859 26.266606 21.331291 18.558930 17.214107 16.757373 16.765094 16.882082 16.826437 16.413109 15.570824 14.331858 12.799966 11.110186 9.397853 7.778653 6.339049 5.132957 4.183582 3.488507 3.029650 2.784608
   3.002213 3.085202 3.369058 3.902268 4.712760 5.825425 7.249650 8.967507 10.925309 13.027735 15.137423 17.082236 18.674865 19.749122 20.208328 20.065887 19.465640 18.670989 18.031430 17.948679 18.884516 21.407520 26.266610 34.396460 46.762888 63.929583 85.458469 109.308350 131.888327 148.573779 156.357289 156.357286 148.573770 131.888313 109.308334 85.458453 63.929570 46.762878 34.396453 26.266606 21.407517 18.884515 17.948679 18.031430 18.670990 19.465640 20.065887 20.208328 19.749122 18.674864 17.082235 15.137422 13.027734 10.925308 8.967506 7.249649 5.825424 4.712760 3.902267 3.369058 3.085202
   3.330617 3.422648 3.737898 4.331534 5.237453 6.489023 8.105862 10.080157 12.364514 14.860606 17.414488 19.819492 21.836729 23.238790 23.862608 23.661952 22.740005 21.344849 19.835906 18.628029 18.157985 18.884516 21.331294 26.112539 33.868534 45.003568 59.278731 75.356825 90.776648 102.271721 107.655959 107.655957 102.271715 90.776639 75.356814 59.278721 45.003559 33.868527 26.112535 21.331291 18.884515 18.157985 18.628029 19.835907 21.344850 22.740005 23.661953 23.862608 23.238790 21.836728 19.819491 17.414487 14.860604 12.364513 10.080156 8.105860 6.489022 5.237453 4.331534 3.737898 3.422648
   3.758547 3.855628 4.188073 4.815347 5.777490 7.117994 8.870308 11.042059 13.599063 16.448229 19.425641 22.297275 24.778624 26.582103 27.480604 27.366307 26.295813 24.494601 22.324997 20.222157 18.628029 17.948679 18.558931 20.824212 25.092817 31.570666 40.090741 49.827600 59.255888 66.322326 69.636551 69.636550 66.322322 59.255882 49.827593 40.090734 31.570661 25.092813 20.824209 18.558930 17.948679 18.628029 20.222158 22.324998 24.494602 26.295814 27.366307 27.480604 26.582102 24.778623 22.297273 19.425639 16.448227 13.599061 11.042058 8.870307 7.117993 5.777489 4.815347 4.188072 3.855628
   4.422402 4.517703 4.842956 5.458172 6.410704 7.756454 9.546528 11.809811 14.533059 17.637440 20.959568 24.248399 27.182205 29.419892 30.673835 30.775178 29.727338 27.720299 25.104708 22.324996 19.835906 18.031429 17.214107 17.602325 19.348829 22.505666 26.927071 32.121029 37.219995 41.063910 42.865950 42.865949 41.063908 37.219991 32.121025 26.927067 22.505663 19.348827 17.602324 17.214107 18.031430 19.835907 22.324998 25.104710 27.720301 29.727339 30.775179 30.673835 29.419891 27.182203 24.248397 20.959566 17.637438 14.533057 11.809810 9.546527 7.756453 6.410703 5.458172 4.842955 4.517703
   5.601486 5.682428 5.956301 6.479873 7.313836 8.532399 10.209871 12.402228 15.124922 18.323233 21.846487 25.439072 28.752372 31.403500 33.048379 33.457510 32.580053 30.560383 27.720299 24.494600 21.344848 18.670988 16.757372 15.763780 15.748973 16.682528 18.429036 20.693587 23.012386 24.788902 25.619949 25.619949 24.788901 23.012384 20.693585 18.429035 16.682526 15.748972 15.763780 16.757373 18.670990 21.344850 24.494602 27.720301 30.560385 32.580054 33.457510 33.048378 31.403499 28.752370 25.439070 21.846485 18.323231 15.124920 12.402226 10.209870 8.532398 7.313836 6.479873 5.956301 5.682428
   7.828802 7.870095 8.005861 8.289225 8.815332 9.694938 11.036705 12.929699 15.422289 18.491192 22.008464 25.726073 29.283925 32.265761 34.279917 35.041550 34.444157 32.580052 29.727337 26.295812 22.740003 19.465639 16.765093 14.795396 13.595155 13.114099 13.234955 13.772297 14.480088 15.069643 15.346953 15.346953 15.069642 14.480088 13.772297 13.234955 13.114099 13.595155 14.795397 16.765094 19.465640 22.740005 26.295814 29.727339 32.580054 34.444158 35.041550 34.279916 32.265760 29.283923 25.726070 22.008461 18.491190 15.422287 12.929697 11.036704 9.694937 8.815332 8.289225 8.005861 7.870095
   12.056354 12.006455 11.830399 11.586975 11.462407 11.651974 12.324626 13.608473 15.580485 18.244504 21.498266 25.109023 28.718505 31.890440 34.194772 35.299118 35.041549 33.457508 30.775177 27.366305 23.661950 20.065885 16.882080 14.287176 12.338746 11.004360 10.195630 9.789380 9.644925 9.619141 9.612949 9.612949 9.619141 9.644925 9.789380 10.195630 11.004361 12.338747 14.287177 16.882082 20.065887 23.661953 27.366307 30.775179 33.457510 35.041550 35.299118 34.194771 31.890438 28.718502 25.109021 21.498264 18.244502 15.580484 13.608472 12.324625 11.651974 11.462407 11.586975 11.830399 12.006455