CRYSTAL
PRIMVEC
 4.86330350000000 0.00000000000000 0.00000000000000
 0.00000000000000 4.86330350000000 0.00000000000000
 0.00000000000000 0.00000000000000 4.86330350000000
PRIMCOORD
 12 1
 58     0.00000000000000     0.00000000000000     0.00000000000000
 58     0.00000000000000     2.43165170000000     2.43165170000000
 58     2.43165170000000     0.00000000000000     2.43165170000000
 58     2.43165170000000     2.43165170000000     0.00000000000000
  8     1.21582590000000     3.64747760000000     3.64747760000000
  8     3.64747760000000     1.21582590000000     1.21582590000000
  8     1.21582590000000     1.21582590000000     1.21582590000000
  8     3.64747760000000     3.64747760000000     3.64747760000000
  8     3.64747760000000     3.64747760000000     1.21582590000000
  8     1.21582590000000     1.21582590000000     3.64747760000000
  8     3.64747760000000     1.21582590000000     3.64747760000000
  8     1.21582590000000     3.64747760000000     1.21582590000000
BEGIN_BLOCK_DATAGRID_3D
 data
 BEGIN_DATAGRID_3Dgrid#1
  61 61 61
  0.000000 0.000000 0.000000
  4.863303 0.000000 0.000000
  0.000000 4.863303 0.000000
  0.000000 0.000000 4.863303
   350.612982 340.045984 311.635923 269.596583 219.696148 171.250178 131.302626 102.723835 84.389457 72.951744 64.948152 58.001309 50.984848 43.618396 36.088607 28.834765 22.357270 17.029201 12.962526 10.016331 7.920857 6.411164 5.295047 4.455051 3.819383 3.338961 2.977742 2.711543 2.524695 2.411611 2.367054 2.367054 2.411611 2.524696 2.711543 2.977742 3.338961 3.819384 4.455052 5.295048 6.411165 7.920858 10.016333 12.962528 17.029203 22.357274 28.834769 36.088611 43.618400 50.984852 58.001313 64.948156 72.951750 84.389466 102.723850 131.302647 171.250207 219.696179 269.596613 311.635946 340.045996
   340.045984 329.812479 302.439571 262.070082 214.216427 167.830738 129.615252 102.244103 84.566202 73.359036 65.333979 58.271318 51.132175 43.675465 36.102711 28.844081 22.385088 17.083556 13.040230 10.108780 8.018339 6.505490 5.380321 4.527234 3.876607 3.381794 3.008955 2.735271 2.544897 2.430923 2.386553 2.386553 2.430923 2.544897 2.735272 3.008955 3.381794 3.876608 4.527235 5.380321 6.505491 8.018340 10.108782 13.040233 17.083559 22.385092 28.844085 36.102716 43.675470 51.132179 58.271323 65.333983 73.359042 84.566211 102.244118 129.615273 167.830766 214.216458 262.070111 302.439593 329.812492
   311.635923 302.439571 278.204666 242.823358 201.006078 160.573293 127.203565 103.005393 86.826203 75.871374 67.421435 59.725802 52.008976 44.140689 36.340621 29.005505 22.566599 17.324878 13.338900 10.441560 8.358083 6.829655 5.672774 4.777259 4.079395 3.539333 3.129402 2.830527 2.626916 2.508286 2.463190 2.463190 2.508286 2.626916 2.830527 3.129402 3.539334 4.079395 4.777260 5.672775 6.829655 8.358084 10.441562 13.338902 17.324880 22.566603 29.005510 36.340626 44.140694 52.008981 59.725807 67.421440 75.871380 86.826211 103.005406 127.203584 160.573318 201.006106 242.823385 278.204686 302.439583
   269.596583 262.070082 242.823358 215.311343 182.905377 151.574161 125.411533 105.707173 91.410173 80.470526 71.088599 62.226134 53.504514 44.943320 36.767057 29.308932 22.905550 17.762343 13.868018 11.022137 8.946363 7.391437 6.184454 5.223510 4.452819 3.841501 3.370600 3.026859 2.795687 2.663613 2.613851 2.613851 2.663613 2.795687 3.026859 3.370600 3.841501 4.452819 5.223511 6.184455 7.391438 8.946364 11.022139 13.868020 17.762345 22.905553 29.308936 36.767062 44.943325 53.504520 62.226139 71.088604 80.470532 91.410181 105.707184 125.411549 151.574182 182.905399 215.311365 242.823374 262.070092
   219.696148 214.216427 201.006078 182.905377 161.621622 140.869647 122.922253 108.222029 95.949542 84.984139 74.582015 64.491905 54.760255 45.549097 37.073266 29.582708 23.300532 18.322110 14.560155 11.784088 9.719332 8.133991 6.870587 5.837035 4.984633 4.290083 3.742915 3.336866 3.060664 2.901326 2.839970 2.839970 2.901326 3.060664 3.336866 3.742916 4.290084 4.984634 5.837035 6.870588 8.133992 9.719334 11.784090 14.560157 18.322113 23.300536 29.582712 37.073271 45.549103 54.760260 64.491911 74.582021 84.984145 95.949549 108.222038 122.922264 140.869662 161.621638 182.905392 201.006090 214.216434
   171.250178 167.830738 160.573293 151.574161 140.869647 129.970592 119.499551 109.256498 98.771302 87.839961 76.672154 65.691034 55.285399 45.719097 37.179868 29.830780 23.783512 19.031559 15.425287 12.719365 10.656235 9.030438 7.705046 6.598526 5.666154 4.887850 4.257942 3.776118 3.437448 3.235297 3.153842 3.153842 3.235297 3.437448 3.776118 4.257942 4.887851 5.666154 6.598526 7.705047 9.030439 10.656236 12.719367 15.425289 19.031561 23.783515 29.830784 37.179873 45.719103 55.285405 65.691041 76.672161 87.839968 98.771309 109.256505 119.499558 129.970600 140.869656 151.574170 160.573300 167.830743
   131.302626 129.615252 127.203565 125.411533 122.922253 119.499551 114.587325 107.654849 98.617065 87.979533 76.616957 65.389256 54.886321 45.421964 37.150097 30.155412 24.458197 19.977849 16.527751 13.869770 11.780500 10.090265 8.687350 7.501960 6.491198 5.632847 4.919812 4.354584 3.940396 3.682663 3.573942 3.573942 3.682663 3.940397 4.354584 4.919813 5.632847 6.491199 7.501961 8.687351 10.090266 11.780501 13.869771 16.527753 19.977852 24.458201 30.155416 37.150102 45.421970 54.886327 65.389263 76.616964 87.979540 98.617071 107.654854 114.587329 119.499555 122.922256 125.411536 127.203567 129.615254
   102.723835 102.244103 103.005393 105.707173 108.222029 109.256498 107.654849 102.834287 95.019328 85.111160 74.292198 63.586177 53.645239 44.785727 37.126597 30.693852 25.445180 21.260726 17.948730 15.300850 13.143706 11.351627 9.841803 8.559480 7.463854 6.526694 5.733286 5.084283 4.589800 4.270214 4.130631 4.130631 4.270214 4.589801 5.084283 5.733287 6.526695 7.463855 8.559481 9.841804 11.351628 13.143707 15.300852 17.948732 21.260728 25.445183 30.693856 37.126601 44.785733 53.645245 63.586184 74.292205 85.111167 95.019333 102.834291 107.654851 109.256498 108.222028 105.707172 103.005392 102.244104
   84.389457 84.566202 86.826203 91.410173 95.949542 98.771302 98.617065 95.019328 88.370339 79.666663 70.084211 60.593813 51.800467 43.985137 37.233494 31.533390 26.808467 22.930622 19.733769 17.059668 14.792621 12.857226 11.204249 9.797160 8.600796 7.580598 6.710520 5.983749 5.413250 5.033829 4.864511 4.864511 5.033830 5.413250 5.983749 6.710521 7.580599 8.600797 9.797161 11.204250 12.857227 14.792623 17.059669 19.733771 22.930624 26.808470 31.533393 37.233498 43.985142 51.800472 60.593819 70.084218 79.666669 88.370344 95.019331 98.617066 98.771302 95.949540 91.410170 86.826201 84.566201
   72.951744 73.359036 75.871374 80.470526 84.984139 87.839961 87.979533 85.111160 79.666663 72.524434 64.659959 56.865452 49.625526 43.160681 37.523211 32.673353 28.524997 24.963852 21.869887 19.149536 16.746440 14.636491 12.809434 11.251164 9.936003 8.826557 7.884446 7.091180 6.457226 6.027807 5.834411 5.834411 6.027807 6.457227 7.091181 7.884446 8.826558 9.936003 11.251165 12.809435 14.636492 16.746441 19.149538 21.869889 24.963854 28.524999 32.673356 37.523214 43.160685 49.625531 56.865457 64.659964 72.524439 79.666668 85.111163 87.979534 87.839960 84.984136 80.470523 75.871372 73.359035
   64.948152 65.333979 67.421435 71.088599 74.582015 76.672154 76.616957 74.292198 70.084211 64.659959 58.726800 52.844988 47.353391 42.391747 37.970688 34.032290 30.490955 27.263473 24.284594 21.525558 18.988088 16.698090 14.684571 12.962201 11.520198 10.321903 9.318397 8.477133 7.800383 7.337625 7.129643 7.129643 7.337625 7.800384 8.477133 9.318398 10.321904 11.520199 12.962202 14.684572 16.698091 18.988090 21.525560 24.284596 27.263475 30.490958 34.032292 37.970690 42.391750 47.353394 52.844992 58.726804 64.659963 70.084215 74.292201 76.616958 76.672153 74.582013 71.088596 67.421433 65.333978
   58.001309 58.271318 59.725802 62.226134 64.491905 65.691034 65.389256 63.586177 60.593813 56.865452 52.844988 48.869865 45.135782 41.688890 38.491287 35.473193 32.555189 29.688934 26.865756 24.111948 21.477535 19.036381 16.856913 14.985278 13.432041 12.165625 11.128277 10.271619 9.583777 9.112026 8.902903 8.902903 9.112027 9.583778 10.271619 11.128277 12.165625 13.432041 14.985279 16.856914 19.036383 21.477536 24.111949 26.865758 29.688935 32.555191 35.473195 38.491289 41.688893 45.135784 48.869867 52.844991 56.865455 60.593816 63.586179 65.389257 65.691034 64.491904 62.226132 59.725801 58.271318
   50.984848 51.132175 52.008976 53.504514 54.760255 55.285399 54.886321 53.645239 51.800467 49.625526 47.353391 45.135782 43.028298 40.996473 38.960748 36.835587 34.552148 32.088912 29.484828 26.812598 24.161134 21.642593 19.363279 17.402272 15.792446 14.512411 13.496871 12.678451 12.025262 11.577252 11.384724 11.384724 11.577252 12.025262 12.678451 13.496872 14.512412 15.792446 17.402273 19.363281 21.642594 24.161135 26.812600 29.484829 32.088914 34.552150 36.835588 38.960749 40.996474 43.028299 45.135783 47.353393 49.625528 51.800468 53.645240 54.886321 55.285399 54.760254 53.504513 52.008975 51.132175
   43.618396 43.675465 44.140689 44.943320 45.549097 45.719097 45.421964 44.785727 43.985137 43.160681 42.391747 41.688890 40.996473 40.217387 39.235796 37.953419 36.313525 34.314604 32.023702 29.543949 26.998909 24.528851 22.270628 20.335975 18.778097 17.583037 16.675744 15.967674 15.403610 15.014679 14.857148 14.857148 15.014680 15.403611 15.967675 16.675744 17.583037 18.778098 20.335976 22.270630 24.528852 26.998910 29.543950 32.023703 34.314605 36.313526 37.953420 39.235797 40.217388 40.996474 41.688891 42.391748 43.160682 43.985138 44.785728 45.421965 45.719097 45.549097 44.943319 44.140689 43.675465
   36.088607 36.102711 36.340621 36.767057 37.073266 37.179868 37.150097 37.126597 37.233494 37.523211 37.970688 38.491287 38.960748 39.235796 39.178561 38.685423 37.702926 36.242053 34.384339 32.246056 29.975793 27.737281 25.685520 23.953232 22.605978 21.628577 20.929583 20.399504 19.963754 19.654177 19.543274 19.543274 19.654177 19.963754 20.399505 20.929584 21.628577 22.605979 23.953233 25.685521 27.737282 29.975795 32.246057 34.384341 36.242054 37.702927 38.685424 39.178562 39.235796 38.960748 38.491286 37.970688 37.523211 37.233494 37.126597 37.150097 37.179868 37.073266 36.767057 36.340621 36.102711
   28.834765 28.844081 29.005505 29.308932 29.582708 29.830780 30.155412 30.693852 31.533390 32.673353 34.032290 35.473193 36.835587 37.953419 38.685423 38.923644 38.614257 37.774144 36.488662 34.881797 33.110450 31.346913 29.749662 28.447071 27.495984 26.868095 26.450724 26.119752 25.796864 25.543329 25.471780 25.471780 25.543330 25.796865 26.119752 26.450724 26.868095 27.495984 28.447071 29.749663 31.346914 33.110451 34.881798 36.488663 37.774145 38.614258 38.923644 38.685423 37.953418 36.835586 35.473193 34.032289 32.673352 31.533389 30.693852 30.155412 29.830780 29.582708 29.308932 29.005505 28.844081
   22.357270 22.385088 22.566599 22.905550 23.300532 23.783512 24.458197 25.445180 26.808467 28.524997 30.490955 32.555189 34.552148 36.313525 37.702926 38.614257 38.995081 38.867559 38.313327 37.458335 36.454616 35.457536 34.600160 33.974596 33.599458 33.412106 33.277112 33.073006 32.753665 32.462383 32.392012 32.392012 32.462383 32.753665 33.073006 33.277112 33.412106 33.599458 33.974596 34.600161 35.457536 36.454616 37.458335 38.313328 38.867560 38.995081 38.614257 37.702925 36.313524 34.552147 32.555188 30.490954 28.524996 26.808466 25.445180 24.458197 23.783511 23.300532 22.905550 22.566599 22.385088
   17.029201 17.083556 17.324878 17.762343 18.322110 19.031559 19.977849 21.260726 22.930622 24.963852 27.263473 29.688934 32.088912 34.314604 36.242053 37.774144 38.867559 39.549792 39.898430 40.034068 40.085571 40.165324 40.343187 40.632227 40.975027 41.249994 41.297650 41.032329 40.496981 39.993228 39.851016 39.851016 39.993228 40.496981 41.032329 41.297650 41.249994 40.975027 40.632227 40.343187 40.165324 40.085571 40.034068 39.898430 39.549792 38.867559 37.774144 36.242052 34.314602 32.088911 29.688932 27.263471 24.963851 22.930621 21.260725 19.977849 19.031558 18.322110 17.762342 17.324877 17.083556
   12.962526 13.040230 13.338900 13.868018 14.560155 15.425287 16.527751 17.948730 19.733769 21.869887 24.284594 26.865756 29.484828 32.023702 34.384339 36.488662 38.313327 39.898430 41.323421 42.688873 44.081443 45.541889 47.035260 48.448319 49.599483 50.280843 50.313456 49.693555 48.626646 47.670567 47.354829 47.354829 47.670567 48.626647 49.693555 50.313456 50.280843 49.599483 48.448318 47.035259 45.541889 44.081442 42.688872 41.323420 39.898429 38.313326 36.488661 34.384338 32.023700 29.484826 26.865755 24.284593 21.869886 19.733768 17.948729 16.527751 15.425287 14.560155 13.868018 13.338900 13.040230
   10.016331 10.108780 10.441560 11.022137 11.784088 12.719365 13.869770 15.300850 17.059668 19.149536 21.525558 24.111948 26.812598 29.543949 32.246056 34.881797 37.458335 40.034068 42.688873 45.493669 48.485375 51.604456 54.664630 57.378978 59.388501 60.365733 60.123142 58.796523 56.837716 55.164569 54.570373 54.570373 55.164570 56.837717 58.796524 60.123143 60.365733 59.388500 57.378977 54.664629 51.604454 48.485373 45.493668 42.688871 40.034066 37.458333 34.881796 32.246054 29.543947 26.812597 24.111946 21.525557 19.149535 17.059666 15.300849 13.869769 12.719365 11.784088 11.022137 10.441560 10.108780
   7.920857 8.018339 8.358083 8.946363 9.719332 10.656235 11.780500 13.143706 14.792621 16.746440 18.988088 21.477535 24.161134 26.998909 29.975793 33.110450 36.454616 40.085571 44.081443 48.485375 53.267171 58.252804 63.081561 67.236750 70.126904 71.280282 70.514967 68.168317 65.018351 62.427627 61.498439 61.498439 62.427628 65.018352 68.168319 70.514968 71.280282 70.126902 67.236748 63.081558 58.252801 53.267168 48.485372 44.081441 40.085569 36.454614 33.110448 29.975791 26.998907 24.161132 21.477533 18.988087 16.746438 14.792620 13.143705 11.780499 10.656235 9.719332 8.946363 8.358083 8.018339
   6.411164 6.505490 6.829655 7.391437 8.133991 9.030438 10.090265 11.351627 12.857226 14.636491 16.698090 19.036381 21.642593 24.528851 27.737281 31.346913 35.457536 40.165324 45.541889 51.604456 58.252804 65.201609 71.899946 77.568281 81.354739 82.635107 81.261990 77.826570 73.460532 69.979220 68.775214 68.775214 69.979221 73.460534 77.826573 81.261991 82.635107 81.354738 77.568279 71.899942 65.201605 58.252800 51.604452 45.541886 40.165321 35.457533 31.346911 27.737279 24.528849 21.642591 19.036380 16.698089 14.636490 12.857225 11.351626 10.090264 9.030437 8.133991 7.391436 6.829654 6.505490
   5.295047 5.380321 5.672774 6.184454 6.870587 7.705046 8.687350 9.841803 11.204249 12.809434 14.684571 16.856913 19.363279 22.270628 25.685520 29.749662 34.600160 40.343187 47.035260 54.664630 63.081561 71.899946 80.389454 87.532966 92.248446 93.811131 92.157446 88.133306 83.124229 79.250856 78.082087 78.082087 79.250857 83.124232 88.133309 92.157447 93.811131 92.248445 87.532962 80.389450 71.899941 63.081556 54.664626 47.035256 40.343183 34.600157 29.749659 25.685517 22.270626 19.363278 16.856912 14.684570 12.809432 11.204248 9.841802 8.687349 7.705045 6.870587 6.184454 5.672774 5.380320
   4.455051 4.527234 4.777259 5.223510 5.837035 6.598526 7.501960 8.559480 9.797160 11.251164 12.962201 14.985278 17.402272 20.335975 23.953232 28.447071 33.974596 40.632227 48.448319 57.378978 67.236750 77.568281 87.532966 95.981777 101.746521 104.146336 103.252942 100.058341 95.907557 92.855679 92.387754 92.387754 92.855680 95.907560 100.058344 103.252943 104.146336 101.746519 95.981772 87.532960 77.568275 67.236744 57.378972 48.448314 40.632223 33.974592 28.447068 23.953230 20.335973 17.402270 14.985276 12.962199 11.251163 9.797160 8.559479 7.501959 6.598525 5.837034 5.223510 4.777259 4.527234
   3.819383 3.876607 4.079395 4.452819 4.984633 5.666154 6.491198 7.463854 8.600796 9.936003 11.520198 13.432041 15.792446 18.778097 22.605978 27.495984 33.599458 40.975027 49.599483 59.388501 70.126904 81.354739 92.248446 101.746521 108.873013 113.208940 114.992420 115.099817 114.313609 114.024447 115.262203 115.262203 114.024448 114.313611 115.099818 114.992421 113.208939 108.873010 101.746516 92.248440 81.354732 70.126897 59.388494 49.599478 40.975022 33.599454 27.495980 22.605975 18.778095 15.792444 13.432039 11.520197 9.936002 8.600795 7.463854 6.491198 5.666153 4.984633 4.452819 4.079395 3.876607
   3.338961 3.381794 3.539333 3.841501 4.290083 4.887850 5.632847 6.526694 7.580598 8.826557 10.321903 12.165625 14.512411 17.583037 21.628577 26.868095 33.412106 41.249994 50.280843 60.365733 71.280282 82.635107 93.811131 104.146336 113.208940 121.084887 128.135419 134.713190 140.373294 145.151273 149.238979 149.238978 145.151271 140.373293 134.713188 128.135417 121.084884 113.208936 104.146331 93.811124 82.635100 71.280275 60.365726 50.280837 41.249989 33.412102 26.868091 21.628574 17.583034 14.512409 12.165623 10.321902 8.826556 7.580597 6.526694 5.632846 4.887850 4.290083 3.841501 3.539333 3.381794
   2.977742 3.008955 3.129402 3.370600 3.742915 4.257942 4.919812 5.733286 6.710520 7.884446 9.318397 11.128277 13.496871 16.675744 20.929583 26.450724 33.277112 41.297650 50.313456 60.123142 70.514967 81.261990 92.157446 103.252942 114.992420 128.135419 143.019145 159.023131 173.874264 185.694965 193.565944 193.565941 185.694959 173.874258 159.023123 143.019138 128.135412 114.992413 103.252935 92.157439 81.261983 70.514960 60.123136 50.313450 41.297644 33.277108 26.450720 20.929580 16.675741 13.496870 11.128275 9.318396 7.884445 6.710520 5.733286 4.919812 4.257942 3.742915 3.370600 3.129402 3.008955
   2.711543 2.735271 2.830527 3.026859 3.336866 3.776118 4.354584 5.084283 5.983749 7.091180 8.477133 10.271619 12.678451 15.967674 20.399504 26.119752 33.073006 41.032329 49.693555 58.796523 68.168317 77.826570 88.133306 100.058341 115.099817 134.713190 159.023131 186.101693 211.535086 231.311412 243.346434 243.346431 231.311403 211.535074 186.101679 159.023116 134.713178 115.099807 100.058333 88.133299 77.826564 68.168311 58.796517 49.693549 41.032324 33.073001 26.119748 20.399501 15.967672 12.678449 10.271618 8.477132 7.091179 5.983748 5.084283 4.354584 3.776117 3.336866 3.026859 2.830527 2.735271
   2.524695 2.544897 2.626916 2.795687 3.060664 3.437448 3.940396 4.589800 5.413250 6.457226 7.800383 9.583777 12.025262 15.403610 19.963754 25.796864 32.753665 40.496981 48.626646 56.837716 65.018351 73.460532 83.124229 95.907557 114.313609 140.373294 173.874264 211.535086 246.918500 274.069932 289.894942 289.894937 274.069919 246.918482 211.535065 173.874243 140.373277 114.313596 95.907548 83.124222 73.460526 65.018345 56.837711 48.626641 40.496976 32.753661 25.796860 19.963750 15.403608 12.025260 9.583776 7.800383 6.457226 5.413249 4.589800 3.940396 3.437447 3.060663 2.795687 2.626916 2.544897
   2.411611 2.430923 2.508286 2.663613 2.901326 3.235297 3.682663 4.270214 5.033829 6.027807 7.337625 9.112026 11.577252 15.014679 19.654177 25.543329 32.462383 39.993228 47.670567 55.164569 62.427627 69.979220 79.250856 92.855679 114.024447 145.151273 185.694965 231.311412 274.069932 306.642003 325.226723 325.226716 306.641987 274.069909 231.311384 185.694938 145.151251 114.024432 92.855669 79.250849 69.979215 62.427622 55.164565 47.670562 39.993223 32.462378 25.543325 19.654173 15.014677 11.577250 9.112025 7.337624 6.027806 5.033829 4.270213 3.682663 3.235297 2.901326 2.663612 2.508285 2.430923
   2.367054 2.386553 2.463190 2.613851 2.839970 3.153842 3.573942 4.130631 4.864511 5.834411 7.129643 8.902903 11.384724 14.857148 19.543274 25.471780 32.392012 39.851016 47.354829 54.570373 61.498439 68.775214 78.082087 92.387754 115.262203 149.238979 193.565944 243.346434 289.894942 325.226723 345.192929 345.192923 325.226705 289.894916 243.346404 193.565914 149.238955 115.262186 92.387743 78.082080 68.775209 61.498434 54.570369 47.354825 39.851012 32.392007 25.471776 19.543270 14.857146 11.384722 8.902902 7.129642 5.834411 4.864510 4.130631 3.573941 3.153842 2.839970 2.613851 2.463190 2.386553
   2.367054 2.386553 2.463190 2.613851 2.839970 3.153842 3.573942 4.130631 4.864511 5.834411 7.129643 8.902903 11.384724 14.857148 19.543274 25.471780 32.392012 39.851016 47.354829 54.570373 61.498439 68.775214 78.082087 92.387754 115.262203 149.238978 193.565941 243.346431 289.894937 325.226716 345.192923 345.192916 325.226698 289.894911 243.346399 193.565911 149.238952 115.262185 92.387743 78.082080 68.775209 61.498434 54.570369 47.354825 39.851012 32.392007 25.471776 19.543270 14.857146 11.384722 8.902902 7.129642 5.834411 4.864510 4.130631 3.573941 3.153842 2.839970 2.613851 2.463190 2.386553
   2.411611 2.430923 2.508286 2.663613 2.901326 3.235297 3.682663 4.270214 5.033830 6.027807 7.337625 9.112027 11.577252 15.014680 19.654177 25.543330 32.462383 39.993228 47.670567 55.164570 62.427628 69.979221 79.250857 92.855680 114.024448 145.151271 185.694959 231.311403 274.069919 306.641987 325.226705 325.226698 306.641970 274.069894 231.311373 185.694930 145.151247 114.024431 92.855669 79.250851 69.979216 62.427624 55.164566 47.670563 39.993223 32.462379 25.543325 19.654173 15.014677 11.577250 9.112025 7.337624 6.027806 5.033829 4.270214 3.682663 3.235297 2.901326 2.663613 2.508286 2.430923
   2.524696 2.544897 2.626916 2.795687 3.060664 3.437448 3.940397 4.589801 5.413250 6.457227 7.800384 9.583778 12.025262 15.403611 19.963754 25.796865 32.753665 40.496981 48.626647 56.837717 65.018352 73.460534 83.124232 95.907560 114.313611 140.373293 173.874258 211.535074 246.918482 274.069909 289.894916 289.894911 274.069894 246.918460 211.535048 173.874233 140.373272 114.313596 95.907550 83.124225 73.460529 65.018348 56.837712 48.626642 40.496976 32.753661 25.796861 19.963751 15.403608 12.025260 9.583776 7.800383 6.457226 5.413250 4.589800 3.940396 3.437447 3.060664 2.795687 2.626916 2.544897
   2.711543 2.735272 2.830527 3.026859 3.336866 3.776118 4.354584 5.084283 5.983749 7.091181 8.477133 10.271619 12.678451 15.967675 20.399505 26.119752 33.073006 41.032329 49.693555 58.796524 68.168319 77.826573 88.133309 100.058344 115.099818 134.713188 159.023123 186.101679 211.535065 231.311384 243.346404 243.346399 231.311373 211.535048 186.101659 159.023104 134.713172 115.099806 100.058335 88.133302 77.826567 68.168313 58.796518 49.693550 41.032324 33.073001 26.119748 20.399501 15.967672 12.678450 10.271618 8.477132 7.091180 5.983748 5.084283 4.354584 3.776118 3.336866 3.026859 2.830527 2.735272
   2.977742 3.008955 3.129402 3.370600 3.742916 4.257942 4.919813 5.733287 6.710521 7.884446 9.318398 11.128277 13.496872 16.675744 20.929584 26.450724 33.277112 41.297650 50.313456 60.123143 70.514968 81.261991 92.157447 103.252943 114.992421 128.135417 143.019138 159.023116 173.874243 185.694938 193.565914 193.565911 185.694930 173.874233 159.023104 143.019126 128.135406 114.992412 103.252936 92.157441 81.261984 70.514961 60.123136 50.313450 41.297645 33.277108 26.450720 20.929581 16.675742 13.496870 11.128276 9.318397 7.884446 6.710520 5.733286 4.919812 4.257942 3.742915 3.370600 3.129402 3.008955
   3.338961 3.381794 3.539334 3.841501 4.290084 4.887851 5.632847 6.526695 7.580599 8.826558 10.321904 12.165625 14.512412 17.583037 21.628577 26.868095 33.412106 41.249994 50.280843 60.365733 71.280282 82.635107 93.811131 104.146336 113.208939 121.084884 128.135412 134.713178 140.373277 145.151251 149.238955 149.238952 145.151247 140.373272 134.713172 128.135406 121.084878 113.208933 104.146330 93.811124 82.635100 71.280275 60.365726 50.280837 41.249989 33.412102 26.868092 21.628574 17.583035 14.512410 12.165624 10.321903 8.826557 7.580598 6.526694 5.632847 4.887850 4.290083 3.841501 3.539334 3.381794
   3.819384 3.876608 4.079395 4.452819 4.984634 5.666154 6.491199 7.463855 8.600797 9.936003 11.520199 13.432041 15.792446 18.778098 22.605979 27.495984 33.599458 40.975027 49.599483 59.388500 70.126902 81.354738 92.248445 101.746519 108.873010 113.208936 114.992413 115.099807 114.313596 114.024432 115.262186 115.262185 114.024431 114.313596 115.099806 114.992412 113.208933 108.873006 101.746513 92.248438 81.354731 70.126895 59.388493 49.599477 40.975022 33.599454 27.495981 22.605976 18.778096 15.792445 13.432040 11.520198 9.936003 8.600796 7.463854 6.491198 5.666154 4.984633 4.452819 4.079395 3.876608
   4.455052 4.527235 4.777260 5.223511 5.837035 6.598526 7.501961 8.559481 9.797161 11.251165 12.962202 14.985279 17.402273 20.335976 23.953233 28.447071 33.974596 40.632227 48.448318 57.378977 67.236748 77.568279 87.532962 95.981772 101.746516 104.146331 103.252935 100.058333 95.907548 92.855669 92.387743 92.387743 92.855669 95.907550 100.058335 103.252936 104.146330 101.746513 95.981768 87.532956 77.568272 67.236741 57.378970 48.448313 40.632222 33.974592 28.447068 23.953231 20.335974 17.402271 14.985277 12.962200 11.251164 9.797160 8.559480 7.501960 6.598526 5.837035 5.223510 4.777259 4.527235
   5.295048 5.380321 5.672775 6.184455 6.870588 7.705047 8.687351 9.841804 11.204250 12.809435 14.684572 16.856914 19.363281 22.270630 25.685521 29.749663 34.600161 40.343187 47.035259 54.664629 63.081558 71.899942 80.389450 87.532960 92.248440 93.811124 92.157439 88.133299 83.124222 79.250849 78.082080 78.082080 79.250851 83.124225 88.133302 92.157441 93.811124 92.248438 87.532956 80.389444 71.899936 63.081553 54.664624 47.035255 40.343183 34.600157 29.749660 25.685518 22.270628 19.363279 16.856913 14.684571 12.809434 11.204249 9.841803 8.687350 7.705046 6.870587 6.184455 5.672775 5.380321
   6.411165 6.505491 6.829655 7.391438 8.133992 9.030439 10.090266 11.351628 12.857227 14.636492 16.698091 19.036383 21.642594 24.528852 27.737282 31.346914 35.457536 40.165324 45.541889 51.604454 58.252801 65.201605 71.899941 77.568275 81.354732 82.635100 81.261983 77.826564 73.460526 69.979215 68.775209 68.775209 69.979216 73.460529 77.826567 81.261984 82.635100 81.354731 77.568272 71.899936 65.201600 58.252796 51.604450 45.541885 40.165321 35.457533 31.346912 27.737280 24.528850 21.642592 19.036381 16.698090 14.636491 12.857226 11.351627 10.090265 9.030438 8.133992 7.391437 6.829655 6.505491
   7.920858 8.018340 8.358084 8.946364 9.719334 10.656236 11.780501 13.143707 14.792623 16.746441 18.988090 21.477536 24.161135 26.998910 29.975795 33.110451 36.454616 40.085571 44.081442 48.485373 53.267168 58.252800 63.081556 67.236744 70.126897 71.280275 70.514960 68.168311 65.018345 62.427622 61.498434 61.498434 62.427624 65.018348 68.168313 70.514961 71.280275 70.126895 67.236741 63.081553 58.252796 53.267165 48.485370 44.081439 40.085568 36.454614 33.110449 29.975793 26.998908 24.161133 21.477535 18.988088 16.746440 14.792621 13.143706 11.780500 10.656236 9.719333 8.946364 8.358084 8.018340
   10.016333 10.108782 10.441562 11.022139 11.784090 12.719367 13.869771 15.300852 17.059669 19.149538 21.525560 24.111949 26.812600 29.543950 32.246057 34.881798 37.458335 40.034068 42.688872 45.493668 48.485372 51.604452 54.664626 57.378972 59.388494 60.365726 60.123136 58.796517 56.837711 55.164565 54.570369 54.570369 55.164566 56.837712 58.796518 60.123136 60.365726 59.388493 57.378970 54.664624 51.604450 48.485370 45.493665 42.688870 40.034066 37.458334 34.881797 32.246055 29.543949 26.812598 24.111948 21.525558 19.149537 17.059668 15.300851 13.869771 12.719366 11.784089 11.022138 10.441561 10.108782
   12.962528 13.040233 13.338902 13.868020 14.560157 15.425289 16.527753 17.948732 19.733771 21.869889 24.284596 26.865758 29.484829 32.023703 34.384341 36.488663 38.313328 39.898430 41.323420 42.688871 44.081441 45.541886 47.035256 48.448314 49.599478 50.280837 50.313450 49.693549 48.626641 47.670562 47.354825 47.354825 47.670563 48.626642 49.693550 50.313450 50.280837 49.599477 48.448313 47.035255 45.541885 44.081439 42.688870 41.323419 39.898429 38.313326 36.488662 34.384339 32.023702 29.484828 26.865756 24.284594 21.869888 19.733770 17.948731 16.527753 15.425289 14.560157 13.868020 13.338902 13.040232
   17.029203 17.083559 17.324880 17.762345 18.322113 19.031561 19.977852 21.260728 22.930624 24.963854 27.263475 29.688935 32.088914 34.314605 36.242054 37.774145 38.867560 39.549792 39.898429 40.034066 40.085569 40.165321 40.343183 40.632223 40.975022 41.249989 41.297644 41.032324 40.496976 39.993223 39.851012 39.851012 39.993223 40.496976 41.032324 41.297645 41.249989 40.975022 40.632222 40.343183 40.165321 40.085568 40.034066 39.898429 39.549792 38.867559 37.774144 36.242053 34.314604 32.088912 29.688934 27.263473 24.963853 22.930623 21.260727 19.977851 19.031561 18.322112 17.762345 17.324880 17.083559
   22.357274 22.385092 22.566603 22.905553 23.300536 23.783515 24.458201 25.445183 26.808470 28.524999 30.490958 32.555191 34.552150 36.313526 37.702927 38.614258 38.995081 38.867559 38.313326 37.458333 36.454614 35.457533 34.600157 33.974592 33.599454 33.412102 33.277108 33.073001 32.753661 32.462378 32.392007 32.392007 32.462379 32.753661 33.073001 33.277108 33.412102 33.599454 33.974592 34.600157 35.457533 36.454614 37.458334 38.313326 38.867559 38.995080 38.614257 37.702926 36.313525 34.552149 32.555190 30.490956 28.524998 26.808469 25.445182 24.458200 23.783515 23.300536 22.905553 22.566603 22.385092
   28.834769 28.844085 29.005510 29.308936 29.582712 29.830784 30.155416 30.693856 31.533393 32.673356 34.032292 35.473195 36.835588 37.953420 38.685424 38.923644 38.614257 37.774144 36.488661 34.881796 33.110448 31.346911 29.749659 28.447068 27.495980 26.868091 26.450720 26.119748 25.796860 25.543325 25.471776 25.471776 25.543325 25.796861 26.119748 26.450720 26.868092 27.495981 28.447068 29.749660 31.346912 33.110449 34.881797 36.488662 37.774144 38.614257 38.923644 38.685423 37.953419 36.835587 35.473194 34.032291 32.673355 31.533392 30.693855 30.155416 29.830784 29.582712 29.308936 29.005510 28.844085