CRYSTAL
PRIMVEC
 4.86330350000000 0.00000000000000 0.00000000000000
 0.00000000000000 4.86330350000000 0.00000000000000
 0.00000000000000 0.00000000000000 4.86330350000000
PRIMCOORD
 12 1
 58     0.00000000000000     0.00000000000000     0.00000000000000
 58     0.00000000000000     2.43165170000000     2.43165170000000
 58     2.43165170000000     0.00000000000000     2.43165170000000
 58     2.43165170000000     2.43165170000000     0.00000000000000
  8     1.21582590000000     3.64747760000000     3.64747760000000
  8     3.64747760000000     1.21582590000000     1.21582590000000
  8     1.21582590000000     1.21582590000000     1.21582590000000
  8     3.64747760000000     3.64747760000000     3.64747760000000
  8     3.64747760000000     3.64747760000000     1.21582590000000
  8     1.21582590000000     1.21582590000000     3.64747760000000
  8     3.64747760000000     1.21582590000000     3.64747760000000
  8     1.21582590000000     3.64747760000000     1.21582590000000
BEGIN_BLOCK_DATAGRID_3D
 data
 BEGIN_DATAGRID_3Dgrid#1
  61 61 61
  0.000000 0.000000 0.000000
  4.863303 0.000000 0.000000
  0.000000 4.863303 0.000000
  0.000000 0.000000 4.863303
   0.050918 0.123200 0.053008 0.004361 0.008170 0.040987 0.064023 0.060221 0.038126 0.015393 0.002428 0.000390 0.005986 0.015135 0.023125 0.025787 0.021963 0.015039 0.008923 0.005328 0.003514 0.002716 0.002243 0.001951 0.001579 0.001274 0.000890 0.000644 0.000365 0.000308 0.000117 0.000117 0.000308 0.000365 0.000644 0.000890 0.001274 0.001579 0.001951 0.002243 0.002716 0.003514 0.005328 0.008923 0.015039 0.021963 0.025787 0.023125 0.015135 0.005986 0.000390 0.002428 0.015393 0.038126 0.060221 0.064023 0.040987 0.008170 0.004361 0.053009 0.123200
   0.123200 0.211439 0.101079 0.014381 0.005621 0.049431 0.090909 0.098311 0.075438 0.042528 0.016215 0.002474 0.000422 0.006407 0.015265 0.021393 0.021317 0.016734 0.011315 0.007484 0.005150 0.003866 0.002977 0.002433 0.001985 0.001807 0.001670 0.001784 0.001772 0.002056 0.001655 0.001655 0.002056 0.001772 0.001784 0.001670 0.001807 0.001985 0.002433 0.002977 0.003866 0.005150 0.007484 0.011315 0.016734 0.021317 0.021393 0.015265 0.006407 0.000422 0.002474 0.016215 0.042528 0.075438 0.098311 0.090909 0.049431 0.005621 0.014381 0.101080 0.211439
   0.053008 0.101079 0.041965 0.002111 0.012410 0.051976 0.081696 0.081629 0.058696 0.030552 0.010019 0.000784 0.001349 0.008233 0.016631 0.021651 0.020735 0.016074 0.011067 0.007738 0.005800 0.004826 0.004120 0.003608 0.002972 0.002431 0.001754 0.001290 0.000791 0.000663 0.000326 0.000326 0.000663 0.000791 0.001290 0.001754 0.002431 0.002972 0.003608 0.004120 0.004826 0.005800 0.007738 0.011067 0.016074 0.020735 0.021651 0.016631 0.008233 0.001349 0.000784 0.010019 0.030552 0.058696 0.081629 0.081696 0.051976 0.012410 0.002111 0.041965 0.101079
   0.004361 0.014381 0.002111 0.003191 0.024353 0.050258 0.061435 0.052188 0.031806 0.012938 0.002254 0.000205 0.004646 0.012420 0.019379 0.021897 0.019001 0.013656 0.008790 0.005766 0.004037 0.003184 0.002632 0.002379 0.002162 0.002166 0.002091 0.002228 0.002112 0.002365 0.001809 0.001809 0.002365 0.002112 0.002228 0.002091 0.002166 0.002162 0.002379 0.002632 0.003184 0.004037 0.005766 0.008790 0.013656 0.019001 0.021897 0.019379 0.012420 0.004646 0.000205 0.002254 0.012938 0.031806 0.052188 0.061435 0.050258 0.024353 0.003191 0.002111 0.014381
   0.008170 0.005621 0.012410 0.024353 0.037402 0.043131 0.037010 0.022894 0.009125 0.001327 0.000322 0.004286 0.010960 0.017869 0.021918 0.021329 0.016782 0.011505 0.007424 0.005148 0.003949 0.003490 0.003227 0.003175 0.002957 0.002769 0.002234 0.001810 0.001165 0.001009 0.000482 0.000482 0.001009 0.001165 0.001810 0.002234 0.002769 0.002957 0.003175 0.003227 0.003490 0.003949 0.005148 0.007424 0.011505 0.016782 0.021329 0.021918 0.017869 0.010960 0.004287 0.000322 0.001327 0.009125 0.022894 0.037010 0.043131 0.037402 0.024353 0.012410 0.005621
   0.040987 0.049431 0.051976 0.050258 0.043131 0.030129 0.015155 0.004035 0.000022 0.002167 0.007562 0.013936 0.019692 0.023411 0.023236 0.019333 0.013485 0.008462 0.005063 0.003274 0.002312 0.001932 0.001731 0.001816 0.001920 0.002271 0.002440 0.002813 0.002684 0.003063 0.002165 0.002165 0.003063 0.002684 0.002813 0.002440 0.002271 0.001920 0.001816 0.001731 0.001932 0.002312 0.003274 0.005063 0.008462 0.013485 0.019333 0.023236 0.023411 0.019692 0.013936 0.007562 0.002167 0.000022 0.004035 0.015155 0.030129 0.043131 0.050258 0.051976 0.049431
   0.064023 0.090909 0.081696 0.061435 0.037010 0.015155 0.002313 0.000529 0.006582 0.015052 0.022001 0.026498 0.028150 0.026919 0.022458 0.016397 0.010491 0.006404 0.003926 0.002751 0.002154 0.002020 0.001986 0.002203 0.002312 0.002547 0.002360 0.002270 0.001656 0.001656 0.000786 0.000786 0.001656 0.001656 0.002270 0.002360 0.002547 0.002312 0.002203 0.001986 0.002020 0.002154 0.002751 0.003926 0.006404 0.010491 0.016397 0.022458 0.026920 0.028150 0.026498 0.022001 0.015052 0.006582 0.000529 0.002313 0.015155 0.037010 0.061435 0.081696 0.090909
   0.060221 0.098311 0.081629 0.052188 0.022894 0.004035 0.000529 0.009497 0.022862 0.033455 0.038084 0.037847 0.033799 0.027523 0.019866 0.012914 0.007561 0.004350 0.002508 0.001648 0.001167 0.001021 0.000949 0.001136 0.001362 0.001941 0.002390 0.003210 0.003314 0.004163 0.002792 0.002792 0.004163 0.003314 0.003210 0.002390 0.001941 0.001362 0.001136 0.000949 0.001021 0.001167 0.001648 0.002508 0.004350 0.007561 0.012914 0.019866 0.027523 0.033799 0.037847 0.038084 0.033455 0.022862 0.009497 0.000529 0.004035 0.022894 0.052188 0.081629 0.098311
   0.038126 0.075438 0.058696 0.031806 0.009125 0.000022 0.006582 0.022862 0.039039 0.048366 0.048798 0.043208 0.034139 0.024626 0.015944 0.009630 0.005451 0.003213 0.001995 0.001500 0.001229 0.001238 0.001262 0.001526 0.001719 0.002180 0.002282 0.002642 0.002237 0.002651 0.001302 0.001302 0.002651 0.002237 0.002642 0.002282 0.002180 0.001719 0.001526 0.001262 0.001238 0.001229 0.001500 0.001995 0.003213 0.005451 0.009631 0.015944 0.024626 0.034139 0.043208 0.048798 0.048366 0.039039 0.022862 0.006582 0.000022 0.009125 0.031806 0.058696 0.075438
   0.015393 0.042528 0.030552 0.012938 0.001327 0.002167 0.015052 0.033455 0.048366 0.054502 0.050801 0.041447 0.029855 0.019651 0.011718 0.006670 0.003608 0.002088 0.001254 0.000922 0.000711 0.000686 0.000664 0.000871 0.001111 0.001800 0.002435 0.003729 0.004185 0.005742 0.003796 0.003796 0.005742 0.004185 0.003729 0.002435 0.001800 0.001111 0.000871 0.000664 0.000686 0.000711 0.000922 0.001254 0.002088 0.003608 0.006670 0.011718 0.019651 0.029855 0.041447 0.050801 0.054502 0.048366 0.033455 0.015052 0.002167 0.001327 0.012938 0.030552 0.042528
   0.002428 0.016215 0.010019 0.002254 0.000322 0.007562 0.022001 0.038084 0.048798 0.050801 0.044143 0.033556 0.022428 0.013819 0.007790 0.004342 0.002402 0.001522 0.001060 0.000948 0.000900 0.001041 0.001133 0.001464 0.001718 0.002340 0.002639 0.003423 0.003256 0.004221 0.002300 0.002300 0.004221 0.003256 0.003423 0.002639 0.002340 0.001718 0.001464 0.001133 0.001041 0.000900 0.000948 0.001060 0.001522 0.002402 0.004342 0.007790 0.013819 0.022428 0.033557 0.044143 0.050801 0.048798 0.038084 0.022001 0.007562 0.000322 0.002254 0.010019 0.016215
   0.000390 0.002474 0.000784 0.000205 0.004286 0.013936 0.026498 0.037847 0.043208 0.041447 0.033556 0.023936 0.015063 0.008813 0.004734 0.002582 0.001400 0.000898 0.000643 0.000594 0.000572 0.000692 0.000773 0.001102 0.001476 0.002434 0.003414 0.005365 0.006343 0.008770 0.006324 0.006324 0.008770 0.006343 0.005365 0.003414 0.002434 0.001476 0.001102 0.000773 0.000692 0.000572 0.000594 0.000643 0.000898 0.001400 0.002582 0.004734 0.008813 0.015063 0.023936 0.033557 0.041447 0.043208 0.037847 0.026498 0.013936 0.004286 0.000205 0.000784 0.002474
   0.005986 0.000422 0.001349 0.004646 0.010960 0.019692 0.028150 0.033799 0.034139 0.029855 0.022428 0.015063 0.008974 0.005013 0.002607 0.001442 0.000844 0.000652 0.000585 0.000718 0.000908 0.001262 0.001604 0.002250 0.002841 0.003957 0.004786 0.006305 0.006626 0.008307 0.005903 0.005903 0.008307 0.006626 0.006305 0.004786 0.003957 0.002841 0.002250 0.001604 0.001262 0.000908 0.000718 0.000585 0.000652 0.000844 0.001442 0.002607 0.005013 0.008974 0.015063 0.022428 0.029856 0.034139 0.033799 0.028150 0.019692 0.010960 0.004646 0.001349 0.000422
   0.015135 0.006407 0.008233 0.012420 0.017869 0.023411 0.026919 0.027523 0.024626 0.019651 0.013819 0.008813 0.005013 0.002710 0.001380 0.000765 0.000471 0.000407 0.000424 0.000576 0.000799 0.001187 0.001631 0.002475 0.003544 0.005507 0.007757 0.011138 0.013394 0.016681 0.014768 0.014768 0.016681 0.013394 0.011138 0.007757 0.005507 0.003544 0.002475 0.001631 0.001187 0.000799 0.000576 0.000424 0.000407 0.000471 0.000765 0.001380 0.002710 0.005013 0.008813 0.013819 0.019651 0.024626 0.027523 0.026920 0.023411 0.017869 0.012420 0.008233 0.006407
   0.023125 0.015265 0.016631 0.019379 0.021918 0.023236 0.022458 0.019866 0.015944 0.011718 0.007790 0.004734 0.002607 0.001380 0.000731 0.000451 0.000351 0.000406 0.000605 0.001006 0.001658 0.002632 0.003856 0.005541 0.007472 0.009925 0.012253 0.014605 0.015804 0.017094 0.016328 0.016328 0.017094 0.015804 0.014605 0.012253 0.009925 0.007472 0.005541 0.003856 0.002632 0.001658 0.001006 0.000605 0.000406 0.000351 0.000451 0.000731 0.001380 0.002607 0.004734 0.007790 0.011718 0.015944 0.019866 0.022458 0.023236 0.021918 0.019379 0.016631 0.015265
   0.025787 0.021393 0.021651 0.021897 0.021329 0.019333 0.016397 0.012914 0.009630 0.006670 0.004342 0.002582 0.001442 0.000765 0.000451 0.000322 0.000321 0.000421 0.000728 0.001275 0.002229 0.003523 0.005396 0.007714 0.010847 0.014297 0.018240 0.021113 0.023629 0.024034 0.026495 0.026495 0.024034 0.023629 0.021114 0.018240 0.014297 0.010847 0.007714 0.005396 0.003523 0.002229 0.001275 0.000728 0.000421 0.000321 0.000322 0.000451 0.000765 0.001442 0.002582 0.004342 0.006670 0.009631 0.012914 0.016397 0.019333 0.021329 0.021897 0.021651 0.021393
   0.021963 0.021317 0.020735 0.019001 0.016782 0.013485 0.010491 0.007561 0.005451 0.003608 0.002402 0.001400 0.000844 0.000471 0.000351 0.000321 0.000476 0.000765 0.001542 0.002784 0.005061 0.007832 0.011788 0.015281 0.019334 0.021015 0.022524 0.020426 0.019755 0.016072 0.020458 0.020458 0.016072 0.019755 0.020426 0.022524 0.021015 0.019334 0.015281 0.011788 0.007832 0.005061 0.002784 0.001542 0.000765 0.000476 0.000321 0.000351 0.000471 0.000844 0.001400 0.002402 0.003608 0.005451 0.007561 0.010491 0.013485 0.016782 0.019001 0.020735 0.021317
   0.015039 0.016734 0.016074 0.013656 0.011505 0.008462 0.006404 0.004350 0.003213 0.002088 0.001522 0.000898 0.000652 0.000407 0.000406 0.000421 0.000765 0.001257 0.002604 0.004432 0.007978 0.011578 0.016916 0.020166 0.024148 0.023342 0.023333 0.018187 0.016787 0.011177 0.018005 0.018005 0.011177 0.016787 0.018187 0.023333 0.023342 0.024148 0.020166 0.016916 0.011578 0.007978 0.004432 0.002604 0.001257 0.000765 0.000421 0.000406 0.000407 0.000652 0.000898 0.001522 0.002088 0.003213 0.004350 0.006404 0.008462 0.011505 0.013656 0.016074 0.016734
   0.008923 0.011315 0.011067 0.008790 0.007424 0.005063 0.003926 0.002508 0.001995 0.001254 0.001060 0.000643 0.000585 0.000424 0.000605 0.000728 0.001542 0.002604 0.005538 0.009110 0.015995 0.021833 0.029921 0.031353 0.032498 0.024687 0.019333 0.009597 0.006328 0.001539 0.005857 0.005857 0.001539 0.006328 0.009597 0.019333 0.024687 0.032499 0.031353 0.029921 0.021833 0.015995 0.009110 0.005538 0.002604 0.001542 0.000728 0.000605 0.000424 0.000585 0.000643 0.001060 0.001254 0.001995 0.002508 0.003926 0.005063 0.007424 0.008790 0.011067 0.011315
   0.005328 0.007484 0.007738 0.005766 0.005148 0.003274 0.002751 0.001648 0.001500 0.000922 0.000948 0.000594 0.000718 0.000576 0.001006 0.001275 0.002784 0.004432 0.009110 0.013848 0.023237 0.029105 0.037406 0.034782 0.032709 0.020346 0.013170 0.003565 0.001291 0.000234 0.001073 0.001073 0.000234 0.001291 0.003565 0.013170 0.020346 0.032709 0.034782 0.037406 0.029105 0.023237 0.013848 0.009110 0.004432 0.002784 0.001275 0.001006 0.000576 0.000718 0.000594 0.000948 0.000922 0.001500 0.001648 0.002751 0.003274 0.005148 0.005766 0.007738 0.007484
   0.003514 0.005150 0.005800 0.004037 0.003949 0.002312 0.002154 0.001167 0.001229 0.000711 0.000900 0.000572 0.000908 0.000799 0.001658 0.002229 0.005061 0.007978 0.015995 0.023237 0.037361 0.043759 0.052423 0.043459 0.035396 0.016247 0.006385 0.000004 0.001249 0.010312 0.002237 0.002237 0.010312 0.001249 0.000004 0.006385 0.016247 0.035396 0.043459 0.052423 0.043759 0.037361 0.023237 0.015995 0.007978 0.005061 0.002229 0.001658 0.000799 0.000908 0.000572 0.000900 0.000711 0.001229 0.001167 0.002154 0.002312 0.003949 0.004037 0.005800 0.005150
   0.002716 0.003866 0.004826 0.003184 0.003490 0.001932 0.002020 0.001021 0.001238 0.000686 0.001041 0.000692 0.001262 0.001187 0.002632 0.003523 0.007832 0.011578 0.021833 0.029105 0.043759 0.047004 0.052879 0.039423 0.028545 0.009128 0.001428 0.002699 0.009152 0.028762 0.012267 0.012267 0.028762 0.009152 0.002699 0.001428 0.009128 0.028545 0.039423 0.052879 0.047004 0.043759 0.029105 0.021833 0.011578 0.007832 0.003523 0.002632 0.001187 0.001262 0.000692 0.001041 0.000686 0.001238 0.001021 0.002020 0.001932 0.003490 0.003184 0.004826 0.003866
   0.002243 0.002977 0.004120 0.002632 0.003227 0.001731 0.001986 0.000949 0.001262 0.000664 0.001133 0.000773 0.001604 0.001631 0.003856 0.005396 0.011788 0.016916 0.029921 0.037406 0.052423 0.052879 0.055435 0.037262 0.022410 0.003572 0.000214 0.014233 0.030322 0.065235 0.039067 0.039067 0.065235 0.030322 0.014233 0.000214 0.003572 0.022410 0.037262 0.055435 0.052879 0.052423 0.037406 0.029921 0.016916 0.011788 0.005396 0.003856 0.001631 0.001604 0.000773 0.001133 0.000664 0.001262 0.000949 0.001986 0.001731 0.003227 0.002632 0.004120 0.002977
   0.001951 0.002433 0.003608 0.002379 0.003175 0.001816 0.002203 0.001136 0.001526 0.000871 0.001464 0.001102 0.002250 0.002475 0.005541 0.007714 0.015281 0.020166 0.031353 0.034782 0.043459 0.039423 0.037262 0.020911 0.008965 0.000012 0.005224 0.029825 0.050696 0.089711 0.060604 0.060604 0.089711 0.050696 0.029825 0.005224 0.000012 0.008965 0.020911 0.037262 0.039423 0.043459 0.034782 0.031353 0.020166 0.015281 0.007714 0.005541 0.002475 0.002250 0.001102 0.001464 0.000871 0.001526 0.001136 0.002203 0.001816 0.003175 0.002379 0.003608 0.002433
   0.001579 0.001985 0.002972 0.002162 0.002957 0.001920 0.002312 0.001362 0.001719 0.001111 0.001718 0.001476 0.002841 0.003544 0.007472 0.010847 0.019334 0.024148 0.032498 0.032709 0.035396 0.028545 0.022410 0.008965 0.001262 0.002982 0.016985 0.048273 0.071354 0.106949 0.081173 0.081173 0.106949 0.071354 0.048273 0.016985 0.002982 0.001262 0.008965 0.022410 0.028545 0.035396 0.032709 0.032499 0.024148 0.019334 0.010847 0.007472 0.003544 0.002841 0.001476 0.001718 0.001111 0.001719 0.001362 0.002312 0.001920 0.002957 0.002162 0.002972 0.001985
   0.001274 0.001807 0.002431 0.002166 0.002769 0.002271 0.002547 0.001941 0.002180 0.001800 0.002340 0.002434 0.003957 0.005507 0.009925 0.014297 0.021015 0.023342 0.024687 0.020346 0.016247 0.009128 0.003572 0.000012 0.002982 0.015196 0.030849 0.050520 0.060090 0.072653 0.057802 0.057803 0.072653 0.060090 0.050520 0.030849 0.015196 0.002982 0.000012 0.003572 0.009128 0.016247 0.020346 0.024687 0.023342 0.021015 0.014297 0.009925 0.005507 0.003957 0.002434 0.002340 0.001800 0.002180 0.001941 0.002547 0.002271 0.002769 0.002166 0.002431 0.001807
   0.000890 0.001670 0.001754 0.002091 0.002234 0.002440 0.002360 0.002390 0.002282 0.002435 0.002639 0.003414 0.004786 0.007757 0.012253 0.018240 0.022524 0.023333 0.019333 0.013170 0.006385 0.001428 0.000214 0.005224 0.016985 0.030849 0.040959 0.041951 0.037698 0.030136 0.026795 0.026795 0.030136 0.037698 0.041951 0.040959 0.030849 0.016985 0.005224 0.000214 0.001428 0.006385 0.013170 0.019333 0.023333 0.022524 0.018240 0.012253 0.007757 0.004786 0.003414 0.002639 0.002435 0.002282 0.002390 0.002360 0.002440 0.002234 0.002091 0.001754 0.001670
   0.000644 0.001784 0.001290 0.002228 0.001810 0.002813 0.002270 0.003210 0.002642 0.003729 0.003423 0.005365 0.006305 0.011138 0.014605 0.021113 0.020426 0.018187 0.009597 0.003565 0.000004 0.002699 0.014233 0.029825 0.048273 0.050520 0.041951 0.018268 0.004793 0.000339 0.000150 0.000150 0.000339 0.004793 0.018268 0.041951 0.050520 0.048273 0.029825 0.014233 0.002699 0.000004 0.003565 0.009597 0.018187 0.020426 0.021114 0.014605 0.011138 0.006305 0.005365 0.003423 0.003729 0.002642 0.003210 0.002270 0.002813 0.001810 0.002228 0.001290 0.001784
   0.000365 0.001772 0.000791 0.002112 0.001165 0.002684 0.001656 0.003314 0.002237 0.004185 0.003256 0.006343 0.006626 0.013394 0.015804 0.023629 0.019755 0.016787 0.006328 0.001291 0.001249 0.009152 0.030322 0.050696 0.071354 0.060090 0.037698 0.004793 0.001532 0.034798 0.025795 0.025795 0.034798 0.001532 0.004793 0.037698 0.060090 0.071354 0.050696 0.030322 0.009152 0.001249 0.001291 0.006328 0.016787 0.019755 0.023629 0.015804 0.013394 0.006626 0.006343 0.003256 0.004185 0.002237 0.003314 0.001656 0.002684 0.001165 0.002112 0.000791 0.001772
   0.000308 0.002056 0.000663 0.002365 0.001009 0.003063 0.001656 0.004163 0.002651 0.005742 0.004221 0.008770 0.008307 0.016681 0.017094 0.024034 0.016072 0.011177 0.001539 0.000234 0.010312 0.028762 0.065235 0.089711 0.106949 0.072653 0.030136 0.000339 0.034798 0.163186 0.140561 0.140561 0.163186 0.034798 0.000339 0.030136 0.072653 0.106949 0.089711 0.065235 0.028762 0.010312 0.000234 0.001539 0.011177 0.016072 0.024034 0.017094 0.016681 0.008307 0.008770 0.004221 0.005742 0.002651 0.004163 0.001656 0.003063 0.001009 0.002365 0.000663 0.002056
   0.000117 0.001655 0.000326 0.001809 0.000482 0.002165 0.000786 0.002792 0.001302 0.003796 0.002300 0.006324 0.005903 0.014768 0.016328 0.026495 0.020458 0.018005 0.005857 0.001073 0.002237 0.012267 0.039067 0.060604 0.081173 0.057802 0.026795 0.000150 0.025795 0.140561 0.105869 0.105869 0.140561 0.025795 0.000150 0.026795 0.057803 0.081173 0.060604 0.039067 0.012267 0.002237 0.001073 0.005857 0.018005 0.020458 0.026495 0.016328 0.014768 0.005903 0.006324 0.002300 0.003796 0.001302 0.002792 0.000786 0.002165 0.000482 0.001809 0.000326 0.001655
   0.000117 0.001655 0.000326 0.001809 0.000482 0.002165 0.000786 0.002792 0.001302 0.003796 0.002300 0.006324 0.005903 0.014768 0.016328 0.026495 0.020458 0.018005 0.005857 0.001073 0.002237 0.012267 0.039067 0.060604 0.081173 0.057803 0.026795 0.000150 0.025795 0.140561 0.105869 0.105869 0.140561 0.025795 0.000150 0.026795 0.057803 0.081173 0.060604 0.039067 0.012267 0.002237 0.001073 0.005857 0.018005 0.020458 0.026495 0.016328 0.014768 0.005903 0.006324 0.002300 0.003796 0.001302 0.002792 0.000786 0.002165 0.000482 0.001809 0.000326 0.001655
   0.000308 0.002056 0.000663 0.002365 0.001009 0.003063 0.001656 0.004163 0.002651 0.005742 0.004221 0.008770 0.008307 0.016681 0.017094 0.024034 0.016072 0.011177 0.001539 0.000234 0.010312 0.028762 0.065235 0.089711 0.106949 0.072653 0.030136 0.000339 0.034798 0.163186 0.140561 0.140561 0.163186 0.034798 0.000339 0.030136 0.072653 0.106949 0.089710 0.065235 0.028762 0.010312 0.000234 0.001539 0.011177 0.016072 0.024034 0.017094 0.016681 0.008307 0.008770 0.004221 0.005742 0.002651 0.004163 0.001656 0.003063 0.001009 0.002365 0.000663 0.002056
   0.000365 0.001772 0.000791 0.002112 0.001165 0.002684 0.001656 0.003314 0.002237 0.004185 0.003256 0.006343 0.006626 0.013394 0.015804 0.023629 0.019755 0.016787 0.006328 0.001291 0.001249 0.009152 0.030322 0.050696 0.071354 0.060090 0.037698 0.004793 0.001532 0.034798 0.025795 0.025795 0.034798 0.001532 0.004793 0.037698 0.060090 0.071354 0.050696 0.030322 0.009152 0.001249 0.001291 0.006328 0.016787 0.019755 0.023629 0.015804 0.013394 0.006626 0.006343 0.003256 0.004185 0.002237 0.003314 0.001656 0.002684 0.001165 0.002112 0.000791 0.001772
   0.000644 0.001784 0.001290 0.002228 0.001810 0.002813 0.002270 0.003210 0.002642 0.003729 0.003423 0.005365 0.006305 0.011138 0.014605 0.021114 0.020426 0.018187 0.009597 0.003565 0.000004 0.002699 0.014233 0.029825 0.048273 0.050520 0.041951 0.018268 0.004793 0.000339 0.000150 0.000150 0.000339 0.004793 0.018268 0.041951 0.050520 0.048273 0.029825 0.014233 0.002699 0.000004 0.003565 0.009597 0.018187 0.020426 0.021113 0.014605 0.011138 0.006305 0.005365 0.003423 0.003729 0.002642 0.003210 0.002270 0.002813 0.001810 0.002228 0.001290 0.001784
   0.000890 0.001670 0.001754 0.002091 0.002234 0.002440 0.002360 0.002390 0.002282 0.002435 0.002639 0.003414 0.004786 0.007757 0.012253 0.018240 0.022524 0.023333 0.019333 0.013170 0.006385 0.001428 0.000214 0.005224 0.016985 0.030849 0.040959 0.041951 0.037698 0.030136 0.026795 0.026795 0.030136 0.037698 0.041951 0.040959 0.030849 0.016985 0.005224 0.000214 0.001428 0.006385 0.013170 0.019333 0.023333 0.022524 0.018240 0.012253 0.007757 0.004786 0.003414 0.002639 0.002435 0.002282 0.002390 0.002360 0.002440 0.002234 0.002091 0.001754 0.001670
   0.001274 0.001807 0.002431 0.002166 0.002769 0.002271 0.002547 0.001941 0.002180 0.001800 0.002340 0.002434 0.003957 0.005507 0.009925 0.014297 0.021015 0.023342 0.024687 0.020346 0.016247 0.009128 0.003572 0.000012 0.002982 0.015196 0.030849 0.050520 0.060090 0.072653 0.057803 0.057803 0.072653 0.060090 0.050520 0.030849 0.015196 0.002982 0.000012 0.003572 0.009128 0.016247 0.020346 0.024687 0.023342 0.021015 0.014297 0.009925 0.005507 0.003957 0.002434 0.002340 0.001800 0.002180 0.001941 0.002547 0.002271 0.002769 0.002166 0.002431 0.001807
   0.001579 0.001985 0.002972 0.002162 0.002957 0.001920 0.002312 0.001362 0.001719 0.001111 0.001718 0.001476 0.002841 0.003544 0.007472 0.010847 0.019334 0.024148 0.032499 0.032709 0.035396 0.028545 0.022410 0.008965 0.001262 0.002982 0.016985 0.048273 0.071354 0.106949 0.081173 0.081173 0.106949 0.071354 0.048273 0.016985 0.002982 0.001262 0.008965 0.022410 0.028545 0.035396 0.032709 0.032498 0.024148 0.019334 0.010847 0.007472 0.003544 0.002841 0.001476 0.001718 0.001111 0.001719 0.001362 0.002312 0.001920 0.002957 0.002162 0.002972 0.001985
   0.001951 0.002433 0.003608 0.002379 0.003175 0.001816 0.002203 0.001136 0.001526 0.000871 0.001464 0.001102 0.002250 0.002475 0.005541 0.007714 0.015281 0.020166 0.031353 0.034782 0.043459 0.039423 0.037262 0.020911 0.008965 0.000012 0.005224 0.029825 0.050696 0.089711 0.060604 0.060604 0.089710 0.050696 0.029825 0.005224 0.000012 0.008965 0.020911 0.037262 0.039423 0.043459 0.034782 0.031353 0.020166 0.015281 0.007714 0.005541 0.002475 0.002250 0.001102 0.001464 0.000871 0.001526 0.001136 0.002203 0.001816 0.003175 0.002379 0.003608 0.002433
   0.002243 0.002977 0.004120 0.002632 0.003227 0.001731 0.001986 0.000949 0.001262 0.000664 0.001133 0.000773 0.001604 0.001631 0.003856 0.005396 0.011788 0.016916 0.029921 0.037406 0.052423 0.052879 0.055435 0.037262 0.022410 0.003572 0.000214 0.014233 0.030322 0.065235 0.039067 0.039067 0.065235 0.030322 0.014233 0.000214 0.003572 0.022410 0.037262 0.055435 0.052879 0.052423 0.037406 0.029921 0.016916 0.011788 0.005396 0.003856 0.001631 0.001604 0.000773 0.001133 0.000664 0.001262 0.000949 0.001986 0.001731 0.003227 0.002632 0.004120 0.002977
   0.002716 0.003866 0.004826 0.003184 0.003490 0.001932 0.002020 0.001021 0.001238 0.000686 0.001041 0.000692 0.001262 0.001187 0.002632 0.003523 0.007832 0.011578 0.021833 0.029105 0.043759 0.047004 0.052879 0.039423 0.028545 0.009128 0.001428 0.002699 0.009152 0.028762 0.012267 0.012267 0.028762 0.009152 0.002699 0.001428 0.009128 0.028545 0.039423 0.052879 0.047004 0.043759 0.029105 0.021833 0.011578 0.007832 0.003523 0.002632 0.001187 0.001262 0.000692 0.001041 0.000686 0.001238 0.001021 0.002020 0.001932 0.003490 0.003184 0.004826 0.003866
   0.003514 0.005150 0.005800 0.004037 0.003949 0.002312 0.002154 0.001167 0.001229 0.000711 0.000900 0.000572 0.000908 0.000799 0.001658 0.002229 0.005061 0.007978 0.015995 0.023237 0.037361 0.043759 0.052423 0.043459 0.035396 0.016247 0.006385 0.000004 0.001249 0.010312 0.002237 0.002237 0.010312 0.001249 0.000004 0.006385 0.016247 0.035396 0.043459 0.052423 0.043759 0.037361 0.023237 0.015995 0.007978 0.005061 0.002229 0.001658 0.000799 0.000908 0.000572 0.000900 0.000711 0.001229 0.001167 0.002154 0.002312 0.003949 0.004037 0.005800 0.005150
   0.005328 0.007484 0.007738 0.005766 0.005148 0.003274 0.002751 0.001648 0.001500 0.000922 0.000948 0.000594 0.000718 0.000576 0.001006 0.001275 0.002784 0.004432 0.009110 0.013848 0.023237 0.029105 0.037406 0.034782 0.032709 0.020346 0.013170 0.003565 0.001291 0.000234 0.001073 0.001073 0.000234 0.001291 0.003565 0.013170 0.020346 0.032709 0.034782 0.037406 0.029105 0.023237 0.013848 0.009110 0.004432 0.002784 0.001275 0.001006 0.000576 0.000718 0.000594 0.000948 0.000922 0.001500 0.001648 0.002751 0.003274 0.005148 0.005766 0.007738 0.007484
   0.008923 0.011315 0.011067 0.008790 0.007424 0.005063 0.003926 0.002508 0.001995 0.001254 0.001060 0.000643 0.000585 0.000424 0.000605 0.000728 0.001542 0.002604 0.005538 0.009110 0.015995 0.021833 0.029921 0.031353 0.032499 0.024687 0.019333 0.009597 0.006328 0.001539 0.005857 0.005857 0.001539 0.006328 0.009597 0.019333 0.024687 0.032498 0.031353 0.029921 0.021833 0.015995 0.009110 0.005538 0.002604 0.001542 0.000728 0.000605 0.000424 0.000585 0.000643 0.001060 0.001254 0.001995 0.002508 0.003926 0.005063 0.007424 0.008790 0.011067 0.011315
   0.015039 0.016734 0.016074 0.013656 0.011505 0.008462 0.006404 0.004350 0.003213 0.002088 0.001522 0.000898 0.000652 0.000407 0.000406 0.000421 0.000765 0.001257 0.002604 0.004432 0.007978 0.011578 0.016916 0.020166 0.024148 0.023342 0.023333 0.018187 0.016787 0.011177 0.018005 0.018005 0.011177 0.016787 0.018187 0.023333 0.023342 0.024148 0.020166 0.016916 0.011578 0.007978 0.004432 0.002604 0.001257 0.000765 0.000421 0.000406 0.000407 0.000652 0.000898 0.001522 0.002088 0.003213 0.004350 0.006404 0.008462 0.011505 0.013656 0.016074 0.016734
   0.021963 0.021317 0.020735 0.019001 0.016782 0.013485 0.010491 0.007561 0.005451 0.003608 0.002402 0.001400 0.000844 0.000471 0.000351 0.000321 0.000476 0.000765 0.001542 0.002784 0.005061 0.007832 0.011788 0.015281 0.019334 0.021015 0.022524 0.020426 0.019755 0.016072 0.020458 0.020458 0.016072 0.019755 0.020426 0.022524 0.021015 0.019334 0.015281 0.011788 0.007832 0.005061 0.002784 0.001542 0.000765 0.000476 0.000321 0.000351 0.000471 0.000844 0.001400 0.002402 0.003608 0.005451 0.007561 0.010491 0.013485 0.016782 0.019001 0.020735 0.021317
   0.025787 0.021393 0.021651 0.021897 0.021329 0.019333 0.016397 0.012914 0.009631 0.006670 0.004342 0.002582 0.001442 0.000765 0.000451 0.000322 0.000321 0.000421 0.000728 0.001275 0.002229 0.003523 0.005396 0.007714 0.010847 0.014297 0.018240 0.021114 0.023629 0.024034 0.026495 0.026495 0.024034 0.023629 0.021113 0.018240 0.014297 0.010847 0.007714 0.005396 0.003523 0.002229 0.001275 0.000728 0.000421 0.000321 0.000322 0.000451 0.000765 0.001442 0.002582 0.004342 0.006670 0.009631 0.012914 0.016397 0.019333 0.021329 0.021897 0.021651 0.021393
   0.023125 0.015265 0.016631 0.019379 0.021918 0.023236 0.022458 0.019866 0.015944 0.011718 0.007790 0.004734 0.002607 0.001380 0.000731 0.000451 0.000351 0.000406 0.000605 0.001006 0.001658 0.002632 0.003856 0.005541 0.007472 0.009925 0.012253 0.014605 0.015804 0.017094 0.016328 0.016328 0.017094 0.015804 0.014605 0.012253 0.009925 0.007472 0.005541 0.003856 0.002632 0.001658 0.001006 0.000605 0.000406 0.000351 0.000451 0.000731 0.001380 0.002607 0.004734 0.007790 0.011718 0.015944 0.019866 0.022458 0.023236 0.021918 0.019379 0.016631 0.015265
   0.015135 0.006407 0.008233 0.012420 0.017869 0.023411 0.026920 0.027523 0.024626 0.019651 0.013819 0.008813 0.005013 0.002710 0.001380 0.000765 0.000471 0.000407 0.000424 0.000576 0.000799 0.001187 0.001631 0.002475 0.003544 0.005507 0.007757 0.011138 0.013394 0.016681 0.014768 0.014768 0.016681 0.013394 0.011138 0.007757 0.005507 0.003544 0.002475 0.001631 0.001187 0.000799 0.000576 0.000424 0.000407 0.000471 0.000765 0.001380 0.002710 0.005013 0.008813 0.013819 0.019651 0.024626 0.027523 0.026919 0.023411 0.017869 0.012420 0.008233 0.006407
   0.005986 0.000422 0.001349 0.004646 0.010960 0.019692 0.028150 0.033799 0.034139 0.029855 0.022428 0.015063 0.008974 0.005013 0.002607 0.001442 0.000844 0.000652 0.000585 0.000718 0.000908 0.001262 0.001604 0.002250 0.002841 0.003957 0.004786 0.006305 0.006626 0.008307 0.005903 0.005903 0.008307 0.006626 0.006305 0.004786 0.003957 0.002841 0.002250 0.001604 0.001262 0.000908 0.000718 0.000585 0.000652 0.000844 0.001442 0.002607 0.005013 0.008974 0.015063 0.022428 0.029855 0.034139 0.033799 0.028150 0.019692 0.010960 0.004646 0.001349 0.000422
   0.000390 0.002474 0.000784 0.000205 0.004287 0.013936 0.026498 0.037847 0.043208 0.041447 0.033557 0.023936 0.015063 0.008813 0.004734 0.002582 0.001400 0.000898 0.000643 0.000594 0.000572 0.000692 0.000773 0.001102 0.001476 0.002434 0.003414 0.005365 0.006343 0.008770 0.006324 0.006324 0.008770 0.006343 0.005365 0.003414 0.002434 0.001476 0.001102 0.000773 0.000692 0.000572 0.000594 0.000643 0.000898 0.001400 0.002582 0.004734 0.008813 0.015063 0.023936 0.033557 0.041447 0.043208 0.037847 0.026497 0.013936 0.004286 0.000205 0.000784 0.002474
   0.002428 0.016215 0.010019 0.002254 0.000322 0.007562 0.022001 0.038084 0.048798 0.050801 0.044143 0.033557 0.022428 0.013819 0.007790 0.004342 0.002402 0.001522 0.001060 0.000948 0.000900 0.001041 0.001133 0.001464 0.001718 0.002340 0.002639 0.003423 0.003256 0.004221 0.002300 0.002300 0.004221 0.003256 0.003423 0.002639 0.002340 0.001718 0.001464 0.001133 0.001041 0.000900 0.000948 0.001060 0.001522 0.002402 0.004342 0.007790 0.013819 0.022428 0.033557 0.044143 0.050801 0.048798 0.038084 0.022001 0.007562 0.000322 0.002254 0.010019 0.016215