 CRYSTAL
 PRIMVEC
      2.738234     2.738234     0.000000
      0.000000     2.738234     2.738234
      2.738234     0.000000     2.738234
 PRIMCOORD
  2 1
  Si     0.000000     0.000000     0.000000
  Si     1.369117     1.369117     1.369117
 BEGIN_BLOCK_DATAGRID_3D
 adjusted_wannier_function
 BEGIN_DATAGRID_3D_UNKNOWN
  60 60 60
     -5.750292    -5.750292    -5.750292
      8.077792     8.077792     0.000000
      0.000000     8.077792     8.077792
      8.077792     0.000000     8.077792
 -7.751220E-02 -1.135114E-01 -1.503290E-01 -1.885540E-01 -2.323110E-01 -2.853840E-01
 -3.461650E-01 -4.069200E-01 -4.575060E-01 -4.891740E-01 -4.956455E-01 -4.726889E-01
 -4.186237E-01 -3.359886E-01 -2.321800E-01 -1.185459E-01 -8.029620E-03 8.766840E-02
 1.607071E-01 2.084070E-01 2.323590E-01 2.362880E-01 2.244940E-01 2.017460E-01
 1.733460E-01 1.444580E-01 1.191150E-01 9.973000E-02 8.713000E-02 8.054600E-02
 7.769700E-02 7.562100E-02 7.184500E-02 6.479700E-02 5.346800E-02 3.743300E-02
 1.748530E-02 -4.329950E-03 -2.567400E-02 -4.428200E-02 -5.692300E-02 -5.923700E-02
 -4.877800E-02 -2.893030E-02 -8.259000E-03 5.597000E-03 6.780600E-02 6.448100E-02
 6.064700E-02 5.916500E-02 6.014600E-02 6.198500E-02 6.347500E-02 6.378700E-02
 6.076900E-02 5.107400E-02 3.270110E-02 6.149800E-03 -2.755420E-02 -6.813600E-02
 -1.135114E-01 -1.544280E-01 -1.969370E-01 -2.450170E-01 -3.038130E-01 -3.738510E-01
 -4.485910E-01 -5.172520E-01 -5.692720E-01 -5.959324E-01 -5.898807E-01 -5.455772E-01
 -4.619262E-01 -3.449640E-01 -2.077923E-01 -6.758550E-02 5.886780E-02 1.591192E-01
 2.271776E-01 2.631320E-01 2.711070E-01 2.571703E-01 2.284259E-01 1.925767E-01
 1.568512E-01 1.263801E-01 1.035728E-01 8.900150E-02 8.223960E-02 8.175500E-02
 8.456600E-02 8.695600E-02 8.582000E-02 7.922700E-02 6.625100E-02 4.724100E-02
 2.440310E-02 1.182139E-03 -1.951350E-02 -3.585200E-02 -4.562400E-02 -4.575500E-02
 -3.518450E-02 -1.810790E-02 -2.367000E-03 6.567000E-03 7.172200E-02 6.745100E-02
 6.504900E-02 6.604200E-02 6.930100E-02 7.314900E-02 7.643600E-02 7.718300E-02
 7.185000E-02 5.750700E-02 3.400900E-02 2.493700E-03 -3.748380E-02 -8.689000E-02
 -1.503290E-01 -1.969370E-01 -2.495500E-01 -3.134120E-01 -3.905510E-01 -4.765210E-01
 -5.619180E-01 -6.358980E-01 -6.877340E-01 -7.063168E-01 -6.809554E-01 -6.049634E-01
 -4.804513E-01 -3.204733E-01 -1.464891E-01 1.782120E-02 1.530319E-01 2.481118E-01
 3.007823E-01 3.153405E-01 2.997671E-01 2.637954E-01 2.178610E-01 1.718010E-01
 1.328960E-01 1.044790E-01 8.674700E-02 7.870000E-02 7.914450E-02 8.586470E-02
 9.489000E-02 1.014890E-01 1.019470E-01 9.429100E-02 7.824200E-02 5.557000E-02
 3.022900E-02 6.690800E-03 -1.249010E-02 -2.675970E-02 -3.516760E-02 -3.550000E-02
 -2.720190E-02 -1.424200E-02 -3.082000E-03 2.629000E-03 6.992000E-02 6.712600E-02
 6.791300E-02 7.212100E-02 7.821000E-02 8.480100E-02 8.995700E-02 9.004400E-02
 8.120700E-02 6.217200E-02 3.404610E-02 -3.047000E-03 -5.126140E-02 -1.114496E-01
 -1.885540E-01 -2.450170E-01 -3.134120E-01 -3.961040E-01 -4.902910E-01 -5.890780E-01
 -6.833850E-01 -7.620050E-01 -8.105815E-01 -8.127147E-01 -7.546837E-01 -6.320780E-01
 -4.547010E-01 -2.462744E-01 -3.801800E-02 1.409961E-01 2.717365E-01 3.477908E-01
 3.730979E-01 3.578192E-01 3.147790E-01 2.573530E-01 1.979480E-01 1.463410E-01
 1.079730E-01 8.379200E-02 7.218800E-02 7.131200E-02 7.942600E-02 9.332960E-02
 1.077150E-01 1.168530E-01 1.168050E-01 1.061700E-01 8.594100E-02 5.960800E-02
 3.249200E-02 9.172900E-03 -8.859000E-03 -2.222790E-02 -3.055410E-02 -3.188020E-02
 -2.587660E-02 -1.620600E-02 -8.149000E-03 -4.180000E-03 6.472000E-02 6.496900E-02
 6.932300E-02 7.687000E-02 8.648000E-02 9.634200E-02 1.026860E-01 1.007060E-01
 8.754600E-02 6.346700E-02 2.936540E-02 -1.598200E-02 -7.481700E-02 -1.466531E-01
 -2.323110E-01 -3.038130E-01 -3.905510E-01 -4.902910E-01 -5.981190E-01 -7.079550E-01
 -8.103700E-01 -8.895994E-01 -9.244079E-01 -8.937612E-01 -7.848920E-01 -6.007680E-01
 -3.632890E-01 -1.092536E-01 1.211456E-01 2.972788E-01 4.053388E-01 4.473743E-01
 4.356450E-01 3.867170E-01 3.174780E-01 2.429030E-01 1.749020E-01 1.213070E-01
 8.523000E-02 6.575300E-02 6.028300E-02 6.655000E-02 8.208490E-02 1.022915E-01
 1.203540E-01 1.297990E-01 1.270140E-01 1.118110E-01 8.685600E-02 5.719100E-02
 2.875510E-02 5.563000E-03 -1.186200E-02 -2.458790E-02 -3.229720E-02 -3.345270E-02
 -2.840060E-02 -2.075980E-02 -1.480440E-02 -1.207560E-02 5.796080E-02 6.113200E-02
 6.852200E-02 7.974300E-02 9.361600E-02 1.064540E-01 1.125200E-01 1.071380E-01
 8.885100E-02 5.824670E-02 1.539000E-02 -4.077000E-02 -1.108080E-01 -1.932646E-01
 -2.853840E-01 -3.738510E-01 -4.765210E-01 -5.890780E-01 -7.079550E-01 -8.271440E-01
 -9.322636E-01 -9.995430E-01 -1.001893E+00 -9.180190E-01 -7.413900E-01 -4.871320E-01
 -1.927040E-01 9.198270E-02 3.220146E-01 4.717831E-01 5.382576E-01 5.346319E-01
 4.815790E-01 4.004990E-01 3.097470E-01 2.231740E-01 1.503010E-01 9.660200E-02
 6.336900E-02 4.857100E-02 4.913600E-02 6.242300E-02 8.494900E-02 1.103606E-01
 1.302670E-01 1.377730E-01 1.302670E-01 1.093360E-01 7.951900E-02 4.701900E-02
 1.780200E-02 -4.844000E-03 -2.094700E-02 -3.166590E-02 -3.702260E-02 -3.652784E-02
 -3.149010E-02 -2.535200E-02 -2.126520E-02 -1.987360E-02 4.908534E-02 5.400590E-02
 6.416200E-02 7.968700E-02 9.775800E-02 1.121220E-01 1.163110E-01 1.067660E-01
 8.258200E-02 4.364610E-02 -9.808000E-03 -7.680000E-02 -1.561750E-01 -2.470144E-01
 -3.461650E-01 -4.485910E-01 -5.619180E-01 -6.833850E-01 -8.103700E-01 -9.322636E-01
 -1.026055E+00 -1.061241E+00 -1.009450E+00 -8.543650E-01 -6.004990E-01 -2.795440E-01
 5.414470E-02 3.417618E-01 5.419281E-01 6.416915E-01 6.522918E-01 5.977980E-01
 5.049550E-01 3.969510E-01 2.906080E-01 1.966760E-01 1.218320E-01 6.960300E-02
 4.000300E-02 3.022600E-02 3.699800E-02 5.736000E-02 8.645200E-02 1.157478E-01
 1.353199E-01 1.385550E-01 1.246340E-01 9.748500E-02 6.344700E-02 2.943300E-02
 1.004000E-03 -1.937700E-02 -3.228130E-02 -3.924580E-02 -4.111650E-02 -3.858610E-02
 -3.356230E-02 -2.894970E-02 -2.680600E-02 -2.706200E-02 3.566580E-02 4.146960E-02
 5.474660E-02 7.468700E-02 9.565500E-02 1.098310E-01 1.115350E-01 9.800500E-02
 6.758300E-02 1.974200E-02 -4.342900E-02 -1.185450E-01 -2.042880E-01 -3.011717E-01
 -4.069200E-01 -5.172520E-01 -6.358980E-01 -7.620050E-01 -8.895994E-01 -9.995430E-01
 -1.061241E+00 -1.042108E+00 -9.178210E-01 -6.816450E-01 -3.543090E-01 1.310410E-02
 3.530363E-01 6.075501E-01 7.488381E-01 7.813893E-01 7.301496E-01 6.268639E-01
 5.007590E-01 3.735020E-01 2.580750E-01 1.614430E-01 8.783700E-02 3.922500E-02
 1.445200E-02 1.028700E-02 2.365900E-02 5.112300E-02 8.578300E-02 1.166650E-01
 1.330350E-01 1.297920E-01 1.087800E-01 7.636100E-02 4.022700E-02 7.338800E-03
 -1.768880E-02 -3.357840E-02 -4.175420E-02 -4.437080E-02 -4.299080E-02 -3.896480E-02
 -3.428800E-02 -3.129500E-02 -3.129900E-02 -3.377000E-02 1.587100E-02 2.267800E-02
 3.947170E-02 6.299300E-02 8.527000E-02 9.865400E-02 9.855500E-02 8.168600E-02
 4.526470E-02 -1.017300E-02 -7.986900E-02 -1.594960E-01 -2.490821E-01 -3.498570E-01
 -4.575060E-01 -5.692720E-01 -6.877340E-01 -8.105815E-01 -9.244079E-01 -1.001893E+00
 -1.009450E+00 -9.178210E-01 -7.113120E-01 -3.983590E-01 -1.998310E-02 3.561150E-01
 6.599000E-01 8.467504E-01 9.090890E-01 8.682870E-01 7.588799E-01 6.159293E-01
 4.673030E-01 3.301830E-01 2.125700E-01 1.180960E-01 4.919800E-02 6.427000E-03
 -1.232300E-02 -1.011400E-02 1.030000E-02 4.419300E-02 8.196800E-02 1.109039E-01
 1.212101E-01 1.106103E-01 8.384400E-02 4.898970E-02 1.416580E-02 -1.442840E-02
 -3.369790E-02 -4.385516E-02 -4.717090E-02 -4.609230E-02 -4.234200E-02 -3.743200E-02
 -3.335800E-02 -3.217590E-02 -3.476850E-02 -4.024000E-02 -9.597000E-03 -9.970000E-04
 1.928300E-02 4.529240E-02 6.821900E-02 8.142000E-02 8.034500E-02 6.033100E-02
 1.865300E-02 -4.166700E-02 -1.140630E-01 -1.952364E-01 -2.867215E-01 -3.887240E-01
 -4.891740E-01 -5.959324E-01 -7.063168E-01 -8.127147E-01 -8.937612E-01 -9.180190E-01
 -8.543650E-01 -6.816450E-01 -3.983590E-01 -3.283030E-02 3.553945E-01 6.928714E-01
 9.214020E-01 1.018347E+00 9.962090E-01 8.884370E-01 7.338629E-01 5.662347E-01
 4.082089E-01 2.705870E-01 1.569540E-01 6.903700E-02 8.010000E-03 -2.692700E-02
 -3.833400E-02 -2.875680E-02 -1.360000E-03 3.679100E-02 7.379700E-02 9.725300E-02
 1.002597E-01 8.378610E-02 5.448380E-02 2.092910E-02 -9.294800E-03 -3.138500E-02
 -4.401810E-02 -4.868490E-02 -4.798170E-02 -4.412500E-02 -3.869800E-02 -3.337100E-02
 -3.029430E-02 -3.139381E-02 -3.716270E-02 -4.630220E-02 -3.770440E-02 -2.643810E-02
 -2.955000E-03 2.492940E-02 4.868880E-02 6.221800E-02 5.996900E-02 3.657200E-02
 -8.846000E-03 -7.068600E-02 -1.425088E-01 -2.231138E-01 -3.141466E-01 -4.135040E-01
 -4.956455E-01 -5.898807E-01 -6.809554E-01 -7.546837E-01 -7.848920E-01 -7.413900E-01
 -6.004990E-01 -3.543090E-01 -1.998310E-02 3.553945E-01 7.040077E-01 9.616420E-01
 1.092035E+00 1.095168E+00 9.985850E-01 8.413910E-01 6.613590E-01 4.861570E-01
 3.304990E-01 1.994956E-01 9.474300E-02 1.736860E-02 -3.281800E-02 -5.794900E-02
 -6.055900E-02 -4.301900E-02 -1.009600E-02 2.868900E-02 6.107800E-02 7.737700E-02
 7.432000E-02 5.508100E-02 2.678500E-02 -2.456500E-03 -2.616940E-02 -4.120120E-02
 -4.774690E-02 -4.790450E-02 -4.403010E-02 -3.800200E-02 -3.147700E-02 -2.642800E-02
 -2.510010E-02 -2.913720E-02 -3.858630E-02 -5.173770E-02 -6.475200E-02 -5.017530E-02
 -2.383800E-02 5.588000E-03 3.014730E-02 4.354556E-02 3.933970E-02 1.303060E-02
 -3.353970E-02 -9.357316E-02 -1.624226E-01 -2.404247E-01 -3.276360E-01 -4.193960E-01
 -4.726889E-01 -5.455772E-01 -6.049634E-01 -6.320780E-01 -6.007680E-01 -4.871320E-01
 -2.795440E-01 1.310410E-02 3.561150E-01 6.928714E-01 9.616420E-01 1.118039E+00
 1.149208E+00 1.072536E+00 9.234110E-01 7.409020E-01 5.560540E-01 3.870050E-01
 2.413460E-01 1.220250E-01 3.089300E-02 -3.189660E-02 -6.871528E-02 -8.264220E-02
 -7.581300E-02 -5.121400E-02 -1.576700E-02 1.995500E-02 4.575900E-02 5.569500E-02
 4.915600E-02 3.004700E-02 5.183000E-03 -1.814130E-02 -3.487840E-02 -4.350250E-02
 -4.509800E-02 -4.166740E-02 -3.520230E-02 -2.761900E-02 -2.092460E-02 -1.726400E-02
 -1.865300E-02 -2.629000E-02 -3.981500E-02 -5.709400E-02 -8.772200E-02 -6.962600E-02
 -4.106310E-02 -1.073300E-02 1.397600E-02 2.643400E-02 2.024510E-02 -7.119190E-03
 -5.172670E-02 -1.073552E-01 -1.714970E-01 -2.445030E-01 -3.236930E-01 -4.024727E-01
 -4.186237E-01 -4.619262E-01 -4.804513E-01 -4.547010E-01 -3.632890E-01 -1.927040E-01
 5.414470E-02 3.530363E-01 6.599000E-01 9.214020E-01 1.092035E+00 1.149208E+00
 1.098450E+00 9.676400E-01 7.936100E-01 6.089470E-01 4.341510E-01 2.788550E-01
 1.480390E-01 4.565800E-02 -2.682600E-02 -7.216400E-02 -9.489700E-02 -9.782040E-02
 -8.255430E-02 -5.340300E-02 -1.878460E-02 1.178200E-02 3.138900E-02 3.697900E-02
 2.911500E-02 1.186300E-02 -8.249300E-03 -2.504300E-02 -3.526990E-02 -3.870530E-02
 -3.651990E-02 -3.025950E-02 -2.190120E-02 -1.382370E-02 -8.325000E-03 -7.344000E-03
 -1.242800E-02 -2.433600E-02 -4.230000E-02 -6.361600E-02 -1.047060E-01 -8.352100E-02
 -5.372118E-02 -2.333300E-02 8.270000E-04 1.207400E-02 4.933000E-03 -2.107100E-02
 -6.124800E-02 -1.109610E-01 -1.689530E-01 -2.339720E-01 -3.005813E-01 -3.611889E-01
 -3.359886E-01 -3.449640E-01 -3.204733E-01 -2.462744E-01 -1.092536E-01 9.198270E-02
 3.417618E-01 6.075501E-01 8.467504E-01 1.018347E+00 1.095168E+00 1.072536E+00
 9.676400E-01 8.120160E-01 6.374150E-01 4.657150E-01 3.079410E-01 1.705360E-01
 5.990900E-02 -1.989000E-02 -7.083800E-02 -9.907300E-02 -1.092710E-01 -1.027214E-01
 -8.125000E-02 -5.064800E-02 -1.917600E-02 6.197000E-03 2.127000E-02 2.428800E-02
 1.638600E-02 2.117000E-03 -1.240746E-02 -2.282380E-02 -2.778460E-02 -2.754730E-02
 -2.267105E-02 -1.441880E-02 -5.285500E-03 1.810100E-03 4.642000E-03 1.749000E-03
 -7.964000E-03 -2.483700E-02 -4.748400E-02 -7.233901E-02 -1.151770E-01 -9.178400E-02
 -6.155900E-02 -3.159500E-02 -8.352000E-03 1.799000E-03 -5.122000E-03 -2.800090E-02
 -6.247200E-02 -1.054090E-01 -1.554320E-01 -2.089650E-01 -2.585776E-01 -2.967229E-01
 -2.321800E-01 -2.077923E-01 -1.464891E-01 -3.801800E-02 1.211456E-01 3.220146E-01
 5.419281E-01 7.488381E-01 9.090890E-01 9.962090E-01 9.985850E-01 9.234110E-01
 7.936100E-01 6.374150E-01 4.768630E-01 3.240930E-01 1.864340E-01 7.180300E-02
 -1.300400E-02 -6.769000E-02 -9.862000E-02 -1.125730E-01 -1.121640E-01 -9.802840E-02
 -7.333400E-02 -4.422600E-02 -1.673400E-02 4.814000E-03 1.726000E-02 1.912000E-02
 1.238600E-02 2.168000E-03 -6.673800E-03 -1.204630E-02 -1.369920E-02 -1.129310E-02
 -4.693800E-03 4.460500E-03 1.287140E-02 1.744490E-02 1.639900E-02 8.703000E-03
 -6.467000E-03 -2.892700E-02 -5.623600E-02 -8.361430E-02 -1.203110E-01 -9.526500E-02
 -6.461340E-02 -3.508800E-02 -1.309000E-02 -4.029000E-03 -9.962000E-03 -2.877593E-02
 -5.692900E-02 -9.208300E-02 -1.317140E-01 -1.701977E-01 -1.995616E-01 -2.131330E-01
 -1.185459E-01 -6.758550E-02 1.782120E-02 1.409961E-01 2.972788E-01 4.717831E-01
 6.416915E-01 7.813893E-01 8.682870E-01 8.884370E-01 8.413910E-01 7.409020E-01
 6.089470E-01 4.657150E-01 3.240930E-01 1.922630E-01 7.878800E-02 -7.938000E-03
 -6.507200E-02 -9.729000E-02 -1.119550E-01 -1.135830E-01 -1.038590E-01 -8.513760E-02
 -6.134700E-02 -3.598366E-02 -1.159700E-02 8.520000E-03 2.042400E-02 2.271700E-02
 1.845800E-02 1.256097E-02 7.940770E-03 5.158900E-03 4.830000E-03 8.312500E-03
 1.565645E-02 2.424300E-02 3.031190E-02 3.121241E-02 2.567200E-02 1.267200E-02
 -8.588000E-03 -3.709300E-02 -6.871880E-02 -9.708430E-02 -1.221550E-01 -9.499740E-02
 -6.325500E-02 -3.419600E-02 -1.384500E-02 -5.737000E-03 -9.964000E-03 -2.408910E-02
 -4.537900E-02 -7.140100E-02 -9.822100E-02 -1.193413E-01 -1.276203E-01 -1.176270E-01
 -8.029610E-03 5.886780E-02 1.530319E-01 2.717365E-01 4.053388E-01 5.382576E-01
 6.522918E-01 7.301495E-01 7.588799E-01 7.338628E-01 6.613590E-01 5.560540E-01
 4.341510E-01 3.079410E-01 1.864340E-01 7.878800E-02 -6.071000E-03 -6.383300E-02
 -9.689900E-02 -1.110900E-01 -1.112860E-01 -1.013430E-01 -8.567200E-02 -6.819570E-02
 -4.942100E-02 -2.746000E-02 -2.902000E-03 1.896700E-02 3.235400E-02 3.635570E-02
 3.482200E-02 3.172600E-02 2.852760E-02 2.589630E-02 2.562500E-02 2.931500E-02
 3.596800E-02 4.220100E-02 4.471700E-02 4.169910E-02 3.187760E-02 1.357000E-02
 -1.409000E-02 -4.865700E-02 -8.357530E-02 -1.106960E-01 -1.211320E-01 -9.087254E-02
 -5.776000E-02 -2.959900E-02 -1.100400E-02 -3.177000E-03 -4.921000E-03 -1.403500E-02
 -2.809490E-02 -4.394900E-02 -5.679070E-02 -6.057260E-02 -4.969700E-02 -1.994400E-02
 8.766840E-02 1.591193E-01 2.481118E-01 3.477908E-01 4.473743E-01 5.346319E-01
 5.977980E-01 6.268639E-01 6.159293E-01 5.662347E-01 4.861570E-01 3.870050E-01
 2.788550E-01 1.705360E-01 7.180300E-02 -7.938000E-03 -6.383300E-02 -9.698600E-02
 -1.109850E-01 -1.089580E-01 -9.534800E-02 -7.801600E-02 -6.422440E-02 -5.388700E-02
 -3.969050E-02 -1.598800E-02 1.373300E-02 3.970200E-02 5.503760E-02 6.025500E-02
 5.970100E-02 5.649100E-02 5.199360E-02 4.802580E-02 4.695000E-02 4.941400E-02
 5.336100E-02 5.577600E-02 5.462500E-02 4.854810E-02 3.535060E-02 1.223700E-02
 -2.130200E-02 -6.056100E-02 -9.625380E-02 -1.192240E-01 -1.143170E-01 -8.113890E-02
 -4.783300E-02 -2.144800E-02 -4.392000E-03 3.839000E-03 4.761000E-03 3.450000E-04
 -6.644000E-03 -1.231835E-02 -1.190120E-02 -5.829000E-04 2.566290E-02 6.985300E-02
 1.607072E-01 2.271776E-01 3.007823E-01 3.730979E-01 4.356450E-01 4.815790E-01
 5.049550E-01 5.007590E-01 4.673030E-01 4.082089E-01 3.304990E-01 2.413460E-01
 1.480390E-01 5.990900E-02 -1.300400E-02 -6.507200E-02 -9.689900E-02 -1.109850E-01
 -1.081070E-01 -9.086500E-02 -6.872900E-02 -5.373100E-02 -4.895080E-02 -4.410100E-02
 -2.594000E-02 7.567000E-03 4.532330E-02 7.411400E-02 8.889300E-02 9.263600E-02
 9.000400E-02 8.385300E-02 7.632900E-02 7.001400E-02 6.662800E-02 6.564200E-02
 6.509800E-02 6.341500E-02 5.964000E-02 5.189600E-02 3.651295E-02 1.003000E-02
 -2.679400E-02 -6.677510E-02 -9.904580E-02 -1.153850E-01 -9.747840E-02 -6.413500E-02
 -3.332000E-02 -9.913000E-03 5.507000E-03 1.397800E-02 1.690600E-02 1.644200E-02
 1.586900E-02 1.926750E-02 3.075190E-02 5.378000E-02 9.086500E-02 1.433190E-01
 2.084070E-01 2.631320E-01 3.153405E-01 3.578192E-01 3.867170E-01 4.004990E-01
 3.969510E-01 3.735020E-01 3.301830E-01 2.705870E-01 1.994956E-01 1.220250E-01
 4.565800E-02 -1.989000E-02 -6.769000E-02 -9.729000E-02 -1.110900E-01 -1.089580E-01
 -9.086500E-02 -6.466500E-02 -4.504900E-02 -4.008600E-02 -4.071400E-02 -2.841200E-02
 5.934000E-03 5.313496E-02 9.535400E-02 1.212830E-01 1.309590E-01 1.297880E-01
 1.222630E-01 1.112230E-01 9.937400E-02 8.905600E-02 8.101000E-02 7.455400E-02
 6.896000E-02 6.399000E-02 5.877100E-02 5.040900E-02 3.447640E-02 8.123000E-03
 -2.626900E-02 -6.060418E-02 -8.526240E-02 -9.491200E-02 -6.987230E-02 -4.088600E-02
 -1.550500E-02 3.675000E-03 1.675100E-02 2.465300E-02 2.885300E-02 3.172300E-02
 3.657300E-02 4.717460E-02 6.685650E-02 9.768900E-02 1.403450E-01 1.939800E-01
 2.323590E-01 2.711070E-01 2.997671E-01 3.147790E-01 3.174780E-01 3.097470E-01
 2.906070E-01 2.580750E-01 2.125700E-01 1.569540E-01 9.474300E-02 3.089300E-02
 -2.682600E-02 -7.083800E-02 -9.862000E-02 -1.119550E-01 -1.112860E-01 -9.534800E-02
 -6.872900E-02 -4.504900E-02 -3.575400E-02 -3.568300E-02 -2.515700E-02 1.054000E-02
 6.588900E-02 1.206840E-01 1.579800E-01 1.742620E-01 1.751450E-01 1.666950E-01
 1.524160E-01 1.349340E-01 1.169230E-01 1.002040E-01 8.538200E-02 7.269200E-02
 6.254900E-02 5.498300E-02 4.864300E-02 4.053000E-02 2.719410E-02 7.204700E-03
 -1.694960E-02 -3.961670E-02 -5.520700E-02 -6.121100E-02 -3.651220E-02 -1.539100E-02
 3.008000E-03 1.720300E-02 2.725100E-02 3.414500E-02 3.940200E-02 4.503100E-02
 5.390000E-02 6.944150E-02 9.409150E-02 1.281210E-01 1.701940E-01 2.180150E-01
 2.362880E-01 2.571703E-01 2.637954E-01 2.573530E-01 2.429030E-01 2.231740E-01
 1.966760E-01 1.614430E-01 1.180960E-01 6.903700E-02 1.736860E-02 -3.189660E-02
 -7.216400E-02 -9.907300E-02 -1.125730E-01 -1.135830E-01 -1.013430E-01 -7.801600E-02
 -5.373100E-02 -4.008600E-02 -3.568300E-02 -2.282100E-02 1.615000E-02 7.966300E-02
 1.469390E-01 1.961580E-01 2.197840E-01 2.232450E-01 2.144680E-01 1.978170E-01
 1.753860E-01 1.495760E-01 1.230370E-01 9.780400E-02 7.535900E-02 5.683100E-02
 4.267000E-02 3.243480E-02 2.508850E-02 1.935201E-02 1.390273E-02 7.624600E-03
 -8.048000E-05 -9.003400E-03 -1.780530E-02 -2.412870E-02 -4.989100E-03 8.045000E-03
 1.989700E-02 2.918300E-02 3.620000E-02 4.221900E-02 4.826100E-02 5.553800E-02
 6.667300E-02 8.478470E-02 1.108191E-01 1.429820E-01 1.789500E-01 2.167720E-01
 2.244940E-01 2.284259E-01 2.178610E-01 1.979480E-01 1.749020E-01 1.503010E-01
 1.218320E-01 8.783700E-02 4.919800E-02 8.010000E-03 -3.281800E-02 -6.871529E-02
 -9.489700E-02 -1.092710E-01 -1.121640E-01 -1.038590E-01 -8.567200E-02 -6.422440E-02
 -4.895080E-02 -4.071400E-02 -2.515700E-02 1.615000E-02 8.578800E-02 1.645740E-01
 2.269490E-01 2.602130E-01 2.682060E-01 2.606580E-01 2.434220E-01 2.180430E-01
 1.857670E-01 1.493190E-01 1.121530E-01 7.757500E-02 4.809600E-02 2.474370E-02
 7.109000E-03 -5.295000E-03 -1.173800E-02 -1.080200E-02 -2.581800E-03 9.401340E-03
 1.890090E-02 2.075650E-02 1.501100E-02 6.976000E-03 1.979820E-02 2.723210E-02
 3.397410E-02 3.894130E-02 4.327440E-02 4.822740E-02 5.395600E-02 6.133600E-02
 7.317600E-02 9.170710E-02 1.157653E-01 1.423103E-01 1.699180E-01 1.982220E-01
 2.017460E-01 1.925767E-01 1.718010E-01 1.463410E-01 1.213070E-01 9.660200E-02
 6.960300E-02 3.922500E-02 6.427000E-03 -2.692700E-02 -5.794900E-02 -8.264220E-02
 -9.782040E-02 -1.027214E-01 -9.802840E-02 -8.513760E-02 -6.819570E-02 -5.388700E-02
 -4.410100E-02 -2.841200E-02 1.054000E-02 7.966300E-02 1.645740E-01 2.389780E-01
 2.847020E-01 3.012370E-01 2.982930E-01 2.835320E-01 2.586100E-01 2.230670E-01
 1.784950E-01 1.291560E-01 8.057500E-02 3.776200E-02 3.429900E-03 -2.255900E-02
 -4.146600E-02 -5.288930E-02 -5.385940E-02 -4.136660E-02 -1.677413E-02 1.193220E-02
 3.347240E-02 4.086000E-02 3.650400E-02 2.914800E-02 3.736560E-02 4.172700E-02
 4.440000E-02 4.551600E-02 4.707810E-02 4.991310E-02 5.382990E-02 6.026200E-02
 7.196600E-02 8.937300E-02 1.095334E-01 1.299219E-01 1.510482E-01 1.734025E-01
 1.733460E-01 1.568512E-01 1.328960E-01 1.079730E-01 8.523000E-02 6.336900E-02
 4.000300E-02 1.445200E-02 -1.232300E-02 -3.833400E-02 -6.055900E-02 -7.581300E-02
 -8.255440E-02 -8.125000E-02 -7.333400E-02 -6.134700E-02 -4.942100E-02 -3.969050E-02
 -2.594000E-02 5.934000E-03 6.588900E-02 1.469390E-01 2.269490E-01 2.847020E-01
 3.135080E-01 3.197360E-01 3.115130E-01 2.911980E-01 2.569510E-01 2.081340E-01
 1.484330E-01 8.532300E-02 2.723700E-02 -1.987520E-02 -5.454690E-02 -7.862580E-02
 -9.371090E-02 -9.833880E-02 -8.859840E-02 -6.240265E-02 -2.427180E-02 1.412820E-02
 4.031720E-02 4.975400E-02 4.830540E-02 4.538610E-02 4.911340E-02 5.116070E-02
 5.002300E-02 4.736500E-02 4.547200E-02 4.495670E-02 4.634340E-02 5.184700E-02
 6.323400E-02 7.893200E-02 9.560600E-02 1.123040E-01 1.305507E-01 1.499233E-01
 1.444580E-01 1.263801E-01 1.044790E-01 8.379200E-02 6.575300E-02 4.857100E-02
 3.022600E-02 1.028700E-02 -1.011400E-02 -2.875680E-02 -4.301900E-02 -5.121400E-02
 -5.340300E-02 -5.064800E-02 -4.422600E-02 -3.598366E-02 -2.746000E-02 -1.598800E-02
 7.567000E-03 5.313497E-02 1.206840E-01 1.961580E-01 2.602130E-01 3.012370E-01
 3.197360E-01 3.216140E-01 3.095750E-01 2.811870E-01 2.332520E-01 1.672250E-01
 9.118140E-02 1.712140E-02 -4.439550E-02 -8.865860E-02 -1.168989E-01 -1.325593E-01
 -1.372404E-01 -1.294221E-01 -1.065151E-01 -6.917960E-02 -2.457130E-02 1.536070E-02
 4.117150E-02 5.244940E-02 5.635380E-02 5.954820E-02 5.569890E-02 5.489297E-02
 4.990130E-02 4.323200E-02 3.715400E-02 3.292140E-02 3.233610E-02 3.761400E-02
 4.886000E-02 6.336900E-02 7.860700E-02 9.460600E-02 1.120904E-01 1.290744E-01
 1.191140E-01 1.035728E-01 8.674700E-02 7.218800E-02 6.028300E-02 4.913600E-02
 3.699800E-02 2.365900E-02 1.030000E-02 -1.360000E-03 -1.009600E-02 -1.576700E-02
 -1.878460E-02 -1.917600E-02 -1.673400E-02 -1.159700E-02 -2.902000E-03 1.373300E-02
 4.532340E-02 9.535400E-02 1.579800E-01 2.197840E-01 2.682060E-01 2.982930E-01
 3.115130E-01 3.095750E-01 2.900400E-01 2.478520E-01 1.811230E-01 9.627930E-02
 7.633500E-03 -6.905800E-02 -1.242490E-01 -1.571820E-01 -1.722410E-01 -1.736880E-01
 -1.632900E-01 -1.409470E-01 -1.069125E-01 -6.427950E-02 -2.028590E-02 1.627000E-02
 4.061320E-02 5.489770E-02 6.460650E-02 7.251163E-02 5.688900E-02 5.258300E-02
 4.352300E-02 3.240800E-02 2.202817E-02 1.500850E-02 1.387700E-02 1.980200E-02
 3.141200E-02 4.596100E-02 6.169200E-02 7.826900E-02 9.492510E-02 1.092552E-01
 9.973000E-02 8.900150E-02 7.870000E-02 7.131200E-02 6.655000E-02 6.242300E-02
 5.736000E-02 5.112300E-02 4.419300E-02 3.679100E-02 2.868900E-02 1.995500E-02
 1.178200E-02 6.197000E-03 4.814000E-03 8.520000E-03 1.896700E-02 3.970200E-02
 7.411400E-02 1.212830E-01 1.742620E-01 2.232450E-01 2.606580E-01 2.835320E-01
 2.911980E-01 2.811870E-01 2.478520E-01 1.862540E-01 9.909590E-02 1.560000E-04
 -9.071100E-02 -1.580040E-01 -1.972940E-01 -2.129460E-01 -2.112360E-01 -1.962630E-01
 -1.704820E-01 -1.362320E-01 -9.619900E-02 -5.392100E-02 -1.424000E-02 1.820500E-02
 4.192430E-02 5.913270E-02 7.257480E-02 8.247570E-02 5.226800E-02 4.381200E-02
 3.007000E-02 1.432100E-02 7.310000E-04 -6.987000E-03 -6.851000E-03 7.160000E-04
 1.353500E-02 2.919100E-02 4.598300E-02 6.271340E-02 7.812780E-02 9.071890E-02
 8.713000E-02 8.223960E-02 7.914460E-02 7.942600E-02 8.208490E-02 8.494900E-02
 8.645200E-02 8.578300E-02 8.196800E-02 7.379700E-02 6.107800E-02 4.575900E-02
 3.138900E-02 2.127000E-02 1.726000E-02 2.042400E-02 3.235400E-02 5.503760E-02
 8.889300E-02 1.309590E-01 1.751450E-01 2.144670E-01 2.434220E-01 2.586100E-01
 2.569510E-01 2.332520E-01 1.811230E-01 9.909590E-02 -2.785300E-03 -1.038730E-01
 -1.833040E-01 -2.310900E-01 -2.498410E-01 -2.473580E-01 -2.296370E-01 -2.002790E-01
 -1.631470E-01 -1.226040E-01 -8.187700E-02 -4.293700E-02 -7.787500E-03 2.161280E-02
 4.484160E-02 6.314480E-02 7.753117E-02 8.732780E-02 4.117400E-02 2.762600E-02
 8.808000E-03 -1.045600E-02 -2.465600E-02 -3.031270E-02 -2.710300E-02 -1.691210E-02
 -2.210000E-03 1.474300E-02 3.203200E-02 4.836920E-02 6.316090E-02 7.575900E-02
 8.054600E-02 8.175600E-02 8.586470E-02 9.332970E-02 1.022915E-01 1.103606E-01
 1.157479E-01 1.166650E-01 1.109039E-01 9.725300E-02 7.737700E-02 5.569500E-02
 3.697900E-02 2.428800E-02 1.912000E-02 2.271700E-02 3.635570E-02 6.025500E-02
 9.263600E-02 1.297880E-01 1.666950E-01 1.978170E-01 2.180430E-01 2.230670E-01
 2.081340E-01 1.672250E-01 9.627930E-02 1.560000E-04 -1.038730E-01 -1.928130E-01
 -2.507490E-01 -2.757950E-01 -2.756040E-01 -2.581300E-01 -2.280470E-01 -1.893040E-01
 -1.471610E-01 -1.061710E-01 -6.809600E-02 -3.298900E-02 -1.483800E-03 2.519990E-02
 4.678840E-02 6.411840E-02 7.759160E-02 8.602000E-02 2.316600E-02 4.223000E-03
 -1.833900E-02 -3.808500E-02 -4.948400E-02 -5.072730E-02 -4.341500E-02 -3.029800E-02
 -1.386170E-02 3.729000E-03 2.082540E-02 3.688830E-02 5.201130E-02 6.549410E-02
 7.769700E-02 8.456600E-02 9.489000E-02 1.077150E-01 1.203540E-01 1.302670E-01
 1.353199E-01 1.330350E-01 1.212101E-01 1.002597E-01 7.432000E-02 4.915600E-02
 2.911500E-02 1.638600E-02 1.238600E-02 1.845800E-02 3.482200E-02 5.970100E-02
 9.000400E-02 1.222630E-01 1.524160E-01 1.753860E-01 1.857670E-01 1.784950E-01
 1.484330E-01 9.118140E-02 7.633500E-03 -9.071100E-02 -1.833040E-01 -2.507490E-01
 -2.851440E-01 -2.907700E-01 -2.762420E-01 -2.479530E-01 -2.102770E-01 -1.683140E-01
 -1.272840E-01 -8.982000E-02 -5.561600E-02 -2.415200E-02 3.695200E-03 2.687580E-02
 4.565750E-02 6.095920E-02 7.256678E-02 7.850930E-02 -6.400000E-05 -2.256000E-02
 -4.536800E-02 -6.181800E-02 -6.797020E-02 -6.416650E-02 -5.322900E-02 -3.803500E-02
 -2.085420E-02 -3.529000E-03 1.300430E-02 2.895055E-02 4.441870E-02 5.832360E-02
 7.562100E-02 8.695600E-02 1.014890E-01 1.168530E-01 1.297990E-01 1.377730E-01
 1.385550E-01 1.297920E-01 1.106103E-01 8.378600E-02 5.508100E-02 3.004700E-02
 1.186300E-02 2.117000E-03 2.168000E-03 1.256096E-02 3.172600E-02 5.649100E-02
 8.385300E-02 1.112230E-01 1.349340E-01 1.495760E-01 1.493190E-01 1.291560E-01
 8.532300E-02 1.712140E-02 -6.905800E-02 -1.580040E-01 -2.310900E-01 -2.757950E-01
 -2.907700E-01 -2.822420E-01 -2.575110E-01 -2.223580E-01 -1.823130E-01 -1.427560E-01
 -1.067800E-01 -7.428100E-02 -4.419800E-02 -1.688970E-02 6.386300E-03 2.541130E-02
 4.117360E-02 5.412950E-02 6.304187E-02 6.564370E-02 -2.375600E-02 -4.602100E-02
 -6.520600E-02 -7.605800E-02 -7.684177E-02 -6.934170E-02 -5.651100E-02 -4.078000E-02
 -2.406700E-02 -7.759715E-03 7.854500E-03 2.324010E-02 3.823250E-02 5.185520E-02
 7.184500E-02 8.582000E-02 1.019470E-01 1.168050E-01 1.270140E-01 1.302670E-01
 1.246340E-01 1.087800E-01 8.384400E-02 5.448370E-02 2.678500E-02 5.183000E-03
 -8.249300E-03 -1.240746E-02 -6.673800E-03 7.940760E-03 2.852760E-02 5.199360E-02
 7.632900E-02 9.937400E-02 1.169230E-01 1.230370E-01 1.121530E-01 8.057500E-02
 2.723700E-02 -4.439550E-02 -1.242490E-01 -1.972940E-01 -2.498410E-01 -2.756040E-01
 -2.762420E-01 -2.575110E-01 -2.260030E-01 -1.884570E-01 -1.510540E-01 -1.173710E-01
 -8.742900E-02 -5.980100E-02 -3.435300E-02 -1.229650E-02 5.858700E-03 2.105190E-02
 3.410810E-02 4.430520E-02 4.988303E-02 4.944820E-02 -4.247500E-02 -6.099000E-02
 -7.455300E-02 -7.993080E-02 -7.704230E-02 -6.801400E-02 -5.515500E-02 -4.028900E-02
 -2.502400E-02 -1.036370E-02 3.811540E-03 1.798250E-02 3.188760E-02 4.501430E-02
 6.479700E-02 7.922700E-02 9.429100E-02 1.061700E-01 1.118110E-01 1.093360E-01
 9.748500E-02 7.636100E-02 4.898970E-02 2.092910E-02 -2.456500E-03 -1.814130E-02
 -2.504300E-02 -2.282380E-02 -1.204630E-02 5.158900E-03 2.589630E-02 4.802580E-02
 7.001400E-02 8.905600E-02 1.002040E-01 9.780400E-02 7.757500E-02 3.776200E-02
 -1.987520E-02 -8.865860E-02 -1.571820E-01 -2.129460E-01 -2.473580E-01 -2.581300E-01
 -2.479530E-01 -2.223580E-01 -1.884570E-01 -1.534350E-01 -1.219400E-01 -9.461600E-02
 -6.988600E-02 -4.710700E-02 -2.727300E-02 -1.102390E-02 2.588400E-03 1.473240E-02
 2.505630E-02 3.205740E-02 3.469533E-02 3.292094E-02 -5.358400E-02 -6.687700E-02
 -7.498830E-02 -7.634040E-02 -7.170760E-02 -6.284340E-02 -5.121620E-02 -3.817480E-02
 -2.510240E-02 -1.259640E-02 -1.757930E-04 1.258900E-02 2.531980E-02 3.770700E-02
 5.346800E-02 6.625100E-02 7.824200E-02 8.594100E-02 8.685600E-02 7.951900E-02
 6.344700E-02 4.022700E-02 1.416590E-02 -9.294800E-03 -2.616940E-02 -3.487840E-02
 -3.526990E-02 -2.778460E-02 -1.369920E-02 4.830000E-03 2.562500E-02 4.695000E-02
 6.662800E-02 8.101000E-02 8.538200E-02 7.535900E-02 4.809600E-02 3.429900E-03
 -5.454690E-02 -1.168989E-01 -1.722410E-01 -2.112360E-01 -2.296370E-01 -2.280470E-01
 -2.102770E-01 -1.823130E-01 -1.510540E-01 -1.219400E-01 -9.678100E-02 -7.459600E-02
 -5.455800E-02 -3.736600E-02 -2.367960E-02 -1.252890E-02 -2.332400E-03 7.058600E-03
 1.434160E-02 1.856660E-02 1.995080E-02 1.886050E-02 -5.774500E-02 -6.604280E-02
 -6.973880E-02 -6.851700E-02 -6.351920E-02 -5.583700E-02 -4.620140E-02 -3.567230E-02
 -2.530820E-02 -1.510330E-02 -4.284578E-03 7.217300E-03 1.857680E-02 2.943030E-02
 3.743300E-02 4.724100E-02 5.557000E-02 5.960800E-02 5.719100E-02 4.701900E-02
 2.943300E-02 7.338800E-03 -1.442840E-02 -3.138500E-02 -4.120120E-02 -4.350250E-02
 -3.870530E-02 -2.754730E-02 -1.129310E-02 8.312500E-03 2.931510E-02 4.941400E-02
 6.564200E-02 7.455400E-02 7.269200E-02 5.683100E-02 2.474370E-02 -2.255900E-02
 -7.862580E-02 -1.325593E-01 -1.736880E-01 -1.962630E-01 -2.002790E-01 -1.893040E-01
 -1.683140E-01 -1.427560E-01 -1.173710E-01 -9.461600E-02 -7.459600E-02 -5.695600E-02
 -4.231100E-02 -3.129400E-02 -2.300090E-02 -1.556670E-02 -8.227610E-03 -1.846500E-03
 2.728100E-03 5.819500E-03 7.949700E-03 8.607300E-03 -5.650350E-02 -6.053790E-02
 -6.100585E-02 -5.862180E-02 -5.440680E-02 -4.861250E-02 -4.147240E-02 -3.386700E-02
 -2.631770E-02 -1.815050E-02 -8.676040E-03 1.405190E-03 1.078380E-02 1.928080E-02
 1.748530E-02 2.440310E-02 3.022900E-02 3.249200E-02 2.875510E-02 1.780200E-02