CRYSTAL
PRIMVEC
 2.73823450000000 2.73823450000000 0.00000000000000
 0.00000000000000 2.73823450000000 2.73823450000000
 2.73823450000000 0.00000000000000 2.73823450000000
PRIMCOORD
 2 1
 14     0.00000000000000     0.00000000000000     0.00000000000000
 14     1.36911720000000     1.36911720000000     1.36911720000000
BEGIN_BLOCK_DATAGRID_3D
 data
 BEGIN_DATAGRID_3Dgrid#1
  40 40 40
  -5.750292 -5.750292 -5.750292
  5.339557 5.339557 0.000000
  0.000000 5.339557 5.339557
  5.339557 0.000000 5.339557
   0.009309 0.009558 0.010644 0.012705 0.014064 0.012891 0.009225 0.005067 0.002566 0.002425 0.003797 0.005353 0.006299 0.006389 0.005542 0.004061 0.003009 0.003387 0.004925 0.006269 0.006481 0.006333 0.006829 0.007002 0.005697 0.003662 0.002180 0.001677 0.001950 0.002581 0.003137 0.003396 0.003351 0.003059 0.002597 0.002149 0.002082 0.002780 0.004208 0.005492
   0.009558 0.010227 0.012767 0.015704 0.016313 0.013417 0.008435 0.004046 0.002088 0.002505 0.003937 0.005097 0.005411 0.004734 0.003303 0.002118 0.002480 0.004641 0.007488 0.009560 0.010105 0.009068 0.006644 0.003818 0.001977 0.001439 0.001651 0.002229 0.003000 0.003687 0.004038 0.004032 0.003793 0.003381 0.002799 0.002212 0.001995 0.002322 0.002760 0.002582
   0.010644 0.012767 0.016698 0.019121 0.017451 0.012347 0.006620 0.002845 0.001866 0.002776 0.004060 0.004689 0.004290 0.003014 0.001728 0.001877 0.004393 0.008833 0.013575 0.016384 0.015305 0.010557 0.005456 0.003204 0.003491 0.004274 0.004697 0.004963 0.005176 0.005172 0.004882 0.004458 0.004043 0.003579 0.002948 0.002289 0.001885 0.001671 0.001258 0.000688
   0.012705 0.015704 0.019121 0.019221 0.015059 0.009015 0.004082 0.001806 0.001923 0.003123 0.004087 0.004065 0.003015 0.001666 0.001387 0.003501 0.008419 0.015134 0.020881 0.021899 0.016966 0.010269 0.007225 0.008080 0.009473 0.009672 0.009130 0.008395 0.007460 0.006312 0.005224 0.004487 0.004090 0.003711 0.003111 0.002441 0.001924 0.001479 0.001025 0.000997
   0.014064 0.016313 0.017451 0.015059 0.009983 0.004963 0.001990 0.001389 0.002305 0.003500 0.003936 0.003222 0.001886 0.001155 0.002343 0.006290 0.012864 0.020107 0.023996 0.021507 0.015225 0.011408 0.012207 0.014366 0.015098 0.014476 0.013215 0.011336 0.008873 0.006489 0.004931 0.004355 0.004266 0.004010 0.003384 0.002677 0.002150 0.001793 0.001670 0.002182
   0.012891 0.013417 0.012347 0.009015 0.004963 0.002092 0.001132 0.001690 0.002880 0.003701 0.003454 0.002306 0.001283 0.001564 0.003941 0.008679 0.014947 0.020030 0.020625 0.016819 0.013182 0.013327 0.015894 0.017889 0.018426 0.017831 0.015913 0.012494 0.008560 0.005717 0.004672 0.004812 0.005008 0.004587 0.003683 0.002792 0.002198 0.001930 0.002102 0.002935
   0.009225 0.008435 0.006620 0.004082 0.001990 0.001132 0.001451 0.002414 0.003319 0.003483 0.002724 0.001693 0.001383 0.002442 0.005094 0.009090 0.013160 0.015140 0.013984 0.011651 0.011306 0.013624 0.016735 0.019031 0.019998 0.019109 0.015853 0.011077 0.007049 0.005423 0.005790 0.006517 0.006385 0.005278 0.003799 0.002555 0.001815 0.001637 0.002053 0.002930
   0.005067 0.004046 0.002845 0.001806 0.001389 0.001690 0.002414 0.003112 0.003363 0.002972 0.002216 0.001719 0.001988 0.003184 0.005183 0.007474 0.009079 0.009186 0.008219 0.007882 0.009559 0.012923 0.016516 0.019020 0.019487 0.017281 0.012907 0.008601 0.006768 0.007589 0.009096 0.009396 0.008077 0.005858 0.003662 0.002073 0.001286 0.001249 0.001721 0.002314
   0.002566 0.002088 0.001866 0.001923 0.002305 0.002880 0.003319 0.003363 0.003043 0.002603 0.002287 0.002287 0.002735 0.003601 0.004627 0.005399 0.005606 0.005327 0.005209 0.006266 0.009034 0.012823 0.016090 0.017479 0.016358 0.013095 0.009514 0.008187 0.009960 0.012814 0.014019 0.012630 0.009536 0.006123 0.003361 0.001652 0.000969 0.000995 0.001288 0.001529
   0.002425 0.002505 0.002776 0.003123 0.003500 0.003701 0.003483 0.002972 0.002603 0.002576 0.002736 0.002997 0.003423 0.003948 0.004320 0.004399 0.004323 0.004415 0.005170 0.007130 0.010202 0.013234 0.014790 0.014203 0.011851 0.009233 0.008763 0.011843 0.016695 0.019678 0.018808 0.014927 0.010076 0.005846 0.002944 0.001409 0.000892 0.000875 0.000945 0.001008
   0.003797 0.003937 0.004060 0.004087 0.003936 0.003454 0.002724 0.002216 0.002287 0.002736 0.003198 0.003619 0.004089 0.004522 0.004766 0.004911 0.005257 0.006092 0.007637 0.009856 0.012073 0.013189 0.012563 0.010509 0.008339 0.008323 0.012363 0.019316 0.024901 0.025599 0.021543 0.015302 0.009361 0.005008 0.002456 0.001316 0.000983 0.000915 0.000850 0.000892
   0.005353 0.005097 0.004689 0.004065 0.003222 0.002306 0.001693 0.001719 0.002287 0.002997 0.003619 0.004211 0.004841 0.005444 0.006024 0.006808 0.008032 0.009685 0.011507 0.013031 0.013628 0.012805 0.010682 0.008332 0.007941 0.011895 0.020070 0.028325 0.031659 0.028627 0.021598 0.013906 0.007769 0.003921 0.002049 0.001407 0.001268 0.001173 0.001022 0.001119
   0.006299 0.005411 0.004290 0.003015 0.001886 0.001283 0.001383 0.001988 0.002735 0.003423 0.004089 0.004841 0.005725 0.006778 0.008159 0.010015 0.012169 0.014129 0.015472 0.015958 0.015296 0.013297 0.010561 0.009101 0.011751 0.019602 0.029558 0.035945 0.035318 0.028730 0.019717 0.011526 0.005876 0.002939 0.001924 0.001818 0.001861 0.001702 0.001457 0.001700
   0.006389 0.004734 0.003014 0.001666 0.001155 0.001564 0.002442 0.003184 0.003601 0.003948 0.004522 0.005444 0.006778 0.008684 0.011264 0.014187 0.016722 0.018407 0.019314 0.019386 0.018084 0.015271 0.012534 0.013037 0.019113 0.029300 0.038292 0.040921 0.036092 0.026632 0.016510 0.008643 0.004142 0.002526 0.002534 0.002964 0.003085 0.002749 0.002401 0.002932
   0.005542 0.003303 0.001728 0.001387 0.002343 0.003941 0.005094 0.005183 0.004627 0.004320 0.004766 0.006024 0.008159 0.011264 0.014974 0.018366 0.020827 0.022602 0.023873 0.023839 0.021542 0.017874 0.016056 0.019473 0.028605 0.039446 0.045653 0.043421 0.034138 0.022360 0.012289 0.006040 0.003647 0.003812 0.004907 0.005706 0.005682 0.005029 0.004532 0.005303
   0.004061 0.002118 0.001877 0.003501 0.006290 0.008679 0.009090 0.007474 0.005399 0.004399 0.004911 0.006808 0.010015 0.014187 0.018366 0.021780 0.024673 0.027391 0.028998 0.027866 0.024131 0.020630 0.021133 0.027973 0.039662 0.049871 0.051384 0.042721 0.029039 0.016670 0.008909 0.005982 0.006477 0.008463 0.010307 0.011112 0.010728 0.009598 0.008628 0.009034
   0.003009 0.002480 0.004393 0.008419 0.012864 0.014947 0.013160 0.009079 0.005606 0.004323 0.005257 0.008032 0.012169 0.016722 0.020827 0.024673 0.028735 0.032065 0.032612 0.029943 0.026244 0.024494 0.027599 0.037562 0.051255 0.058859 0.053079 0.037778 0.022535 0.013170 0.010134 0.011418 0.014595 0.017694 0.019657 0.020178 0.019249 0.017178 0.014913 0.014085
   0.003387 0.004641 0.008833 0.015134 0.020107 0.020030 0.015140 0.009186 0.005327 0.004415 0.006092 0.009685 0.014129 0.018407 0.022602 0.027391 0.032065 0.034387 0.033565 0.031353 0.029276 0.028332 0.032285 0.044918 0.059378 0.061384 0.048231 0.031147 0.020091 0.016999 0.019534 0.024525 0.029287 0.032524 0.034159 0.034100 0.031888 0.027756 0.023334 0.020992
   0.004925 0.007488 0.013575 0.020881 0.023996 0.020625 0.013984 0.008219 0.005209 0.005170 0.007637 0.011507 0.015472 0.019314 0.023873 0.028998 0.032612 0.033565 0.033494 0.033174 0.030485 0.026491 0.030557 0.046144 0.058131 0.053922 0.040752 0.030892 0.028541 0.032486 0.039905 0.047305 0.052325 0.054978 0.055796 0.053990 0.048721 0.041365 0.034635 0.030389
   0.006269 0.009560 0.016384 0.021899 0.021507 0.016819 0.011651 0.007882 0.006266 0.007130 0.009856 0.013031 0.015958 0.019386 0.023839 0.027866 0.029943 0.031353 0.033174 0.031825 0.023484 0.016459 0.024353 0.040021 0.046382 0.044683 0.044181 0.047088 0.053314 0.062996 0.073679 0.081482 0.085312 0.086595 0.085266 0.079463 0.069554 0.058925 0.049528 0.040174
   0.006481 0.010105 0.015305 0.016966 0.015225 0.013182 0.011306 0.009559 0.009034 0.010202 0.012073 0.013628 0.015296 0.018084 0.021542 0.024131 0.026244 0.029276 0.030485 0.023484 0.010965 0.008842 0.019511 0.029050 0.038833 0.055858 0.073004 0.085049 0.096161 0.108811 0.119369 0.124526 0.125649 0.124464 0.119116 0.107946 0.093982 0.080752 0.065816 0.044924
   0.006333 0.009068 0.010557 0.010269 0.011408 0.013327 0.013624 0.012923 0.012822 0.013234 0.013189 0.012805 0.013297 0.015271 0.017874 0.020630 0.024494 0.028332 0.026491 0.016459 0.008842 0.011173 0.016093 0.029584 0.063617 0.102591 0.126879 0.139686 0.151133 0.161918 0.167337 0.167172 0.164874 0.160482 0.150688 0.135803 0.120325 0.103895 0.078466 0.042918
   0.006829 0.006644 0.005456 0.007225 0.012207 0.015894 0.016735 0.016516 0.016090 0.014790 0.012563 0.010682 0.010561 0.012534 0.016056 0.021133 0.027599 0.032285 0.030557 0.024353 0.019511 0.016093 0.025627 0.067810 0.127653 0.170007 0.187922 0.196485 0.203915 0.207247 0.204269 0.198725 0.193679 0.186686 0.174684 0.159815 0.144588 0.122870 0.085175 0.040182
   0.007002 0.003818 0.003204 0.008080 0.014366 0.017889 0.019031 0.019020 0.017479 0.014203 0.010509 0.008332 0.009101 0.013037 0.019473 0.027973 0.037562 0.044918 0.046144 0.040021 0.029050 0.029584 0.067810 0.137749 0.198433 0.227637 0.236763 0.240206 0.239700 0.232816 0.222404 0.213789 0.207798 0.200674 0.190186 0.177878 0.162212 0.133793 0.087568 0.040599
   0.005697 0.001977 0.003491 0.009473 0.015098 0.018426 0.019998 0.019487 0.016358 0.011851 0.008339 0.007941 0.011751 0.019113 0.028605 0.039662 0.051255 0.059378 0.058131 0.046382 0.038833 0.063617 0.127653 0.198433 0.243251 0.261045 0.265288 0.261989 0.251016 0.235411 0.221468 0.213190 0.209697 0.206482 0.200033 0.189280 0.170063 0.134528 0.084552 0.040069
   0.003662 0.001439 0.004274 0.009672 0.014476 0.017831 0.019109 0.017281 0.013095 0.009233 0.008323 0.011895 0.019602 0.029300 0.039446 0.049871 0.058859 0.061384 0.053922 0.044683 0.055858 0.102591 0.170007 0.227637 0.261045 0.274289 0.273013 0.259419 0.238960 0.220014 0.207818 0.204680 0.208682 0.211948 0.207673 0.193278 0.165599 0.122486 0.072601 0.034536
   0.002180 0.001651 0.004697 0.009130 0.013215 0.015913 0.015853 0.012907 0.009514 0.008763 0.012363 0.020070 0.029558 0.038292 0.045653 0.051384 0.053079 0.048231 0.040752 0.044181 0.073004 0.126879 0.187922 0.236763 0.265288 0.273013 0.261430 0.237813 0.215092 0.200553 0.195823 0.203017 0.216261 0.222083 0.212687 0.187329 0.147417 0.098704 0.053792 0.025559
   0.001677 0.002229 0.004963 0.008395 0.011336 0.012494 0.011077 0.008601 0.008187 0.011843 0.019316 0.028325 0.035945 0.040921 0.043421 0.042721 0.037778 0.031147 0.030892 0.047088 0.085049 0.139686 0.196485 0.240206 0.261989 0.259419 0.237813 0.212647 0.197498 0.193456 0.200844 0.218854 0.234205 0.232465 0.209742 0.169357 0.119197 0.070991 0.035451 0.017513
   0.001950 0.003000 0.005176 0.007460 0.008873 0.008560 0.007049 0.006768 0.009960 0.016695 0.024901 0.031659 0.035318 0.036092 0.034138 0.029039 0.022535 0.020091 0.028541 0.053314 0.096161 0.151133 0.203915 0.239700 0.251016 0.238960 0.215092 0.197498 0.194708 0.204699 0.224655 0.244787 0.249908 0.232439 0.193691 0.141432 0.088846 0.047741 0.022709 0.013298
   0.002581 0.003687 0.005172 0.006312 0.006489 0.005717 0.005423 0.007589 0.012814 0.019678 0.025599 0.028627 0.028730 0.026632 0.022360 0.016670 0.013170 0.016999 0.032486 0.062996 0.108811 0.161918 0.207247 0.232816 0.235411 0.220014 0.200553 0.193456 0.204699 0.228555 0.252225 0.261441 0.248960 0.214868 0.164291 0.108991 0.062654 0.031799 0.015851 0.013069
   0.003137 0.004038 0.004882 0.005224 0.004931 0.004672 0.005790 0.009096 0.014019 0.018808 0.021543 0.021598 0.019717 0.016510 0.012289 0.008909 0.010134 0.019534 0.039905 0.073679 0.119369 0.167337 0.204269 0.222404 0.221468 0.207818 0.195823 0.200844 0.224655 0.252225 0.265426 0.256507 0.226742 0.180454 0.126486 0.077705 0.042600 0.021719 0.012905 0.015113
   0.003396 0.004032 0.004458 0.004487 0.004355 0.004812 0.006517 0.009396 0.012630 0.014927 0.015302 0.013906 0.011526 0.008643 0.006040 0.005982 0.011418 0.024525 0.047305 0.081482 0.124526 0.167172 0.198725 0.213789 0.213190 0.204680 0.203017 0.218854 0.244787 0.261441 0.256507 0.230021 0.187264 0.136318 0.088325 0.051821 0.028261 0.015406 0.011931 0.017256
   0.003351 0.003793 0.004043 0.004090 0.004266 0.005008 0.006385 0.008077 0.009536 0.010076 0.009361 0.007769 0.005876 0.004142 0.003647 0.006477 0.014595 0.029287 0.052325 0.085312 0.125649 0.164874 0.193679 0.207798 0.209697 0.208682 0.216261 0.234205 0.249908 0.248960 0.226742 0.187264 0.139040 0.092921 0.057108 0.033162 0.018609 0.011575 0.011668 0.018232
   0.003059 0.003381 0.003579 0.003711 0.004010 0.004587 0.005278 0.005858 0.006123 0.005846 0.005008 0.003921 0.002939 0.002526 0.003812 0.008463 0.017694 0.032524 0.054978 0.086595 0.124464 0.160482 0.186686 0.200674 0.206482 0.211948 0.222083 0.232465 0.232439 0.214868 0.180454 0.136318 0.092921 0.058651 0.035512 0.020966 0.012518 0.009404 0.011365 0.017767
   0.002597 0.002799 0.002948 0.003111 0.003384 0.003683 0.003799 0.003662 0.003361 0.002944 0.002456 0.002049 0.001924 0.002534 0.004907 0.010307 0.019657 0.034159 0.055796 0.085266 0.119116 0.150688 0.174684 0.190186 0.200033 0.207673 0.212687 0.209742 0.193691 0.164291 0.126486 0.088325 0.057108 0.035512 0.021790 0.013349 0.008934 0.008112 0.010507 0.015724
   0.002149 0.002212 0.002289 0.002441 0.002677 0.002792 0.002555 0.002073 0.001652 0.001409 0.001316 0.001407 0.001818 0.002964 0.005706 0.011112 0.020178 0.034100 0.053990 0.079463 0.107946 0.135803 0.159815 0.177878 0.189280 0.193278 0.187329 0.169357 0.141432 0.108991 0.077705 0.051821 0.033162 0.020966 0.013349 0.008938 0.006996 0.007024 0.008821 0.012189
   0.002082 0.001995 0.001885 0.001924 0.002150 0.002198 0.001815 0.001286 0.000969 0.000892 0.000983 0.001268 0.001861 0.003085 0.005682 0.010728 0.019249 0.031888 0.048721 0.069554 0.093982 0.120325 0.144588 0.162212 0.170063 0.165599 0.147417 0.119197 0.088846 0.062654 0.042600 0.028261 0.018609 0.012518 0.008934 0.006996 0.006055 0.005890 0.006614 0.008259
   0.002780 0.002322 0.001671 0.001479 0.001793 0.001930 0.001637 0.001249 0.000995 0.000875 0.000915 0.001173 0.001702 0.002749 0.005029 0.009598 0.017178 0.027756 0.041365 0.058925 0.080752 0.103895 0.122870 0.133793 0.134528 0.122486 0.098704 0.070991 0.047741 0.031799 0.021719 0.015406 0.011575 0.009404 0.008112 0.007024 0.005890 0.004982 0.004769 0.005553
   0.004208 0.002760 0.001258 0.001025 0.001670 0.002102 0.002053 0.001721 0.001288 0.000945 0.000850 0.001022 0.001457 0.002401 0.004532 0.008628 0.014913 0.023334 0.034635 0.049528 0.065816 0.078466 0.085175 0.087568 0.084552 0.072601 0.053792 0.035451 0.022709 0.015851 0.012905 0.011931 0.011668 0.011365 0.010507 0.008821 0.006614 0.004769 0.004101 0.004789
   0.005492 0.002582 0.000688 0.000997 0.002182 0.002935 0.002930 0.002314 0.001529 0.001008 0.000892 0.001119 0.001700 0.002932 0.005303 0.009034 0.014085 0.020992 0.030389 0.040174 0.044924 0.042918 0.040182 0.040600 0.040069 0.034536 0.025559 0.017513 0.013298 0.013069 0.015113 0.017256 0.018232 0.017767 0.015724 0.012189 0.008259 0.005553 0.004789 0.005437

   0.009558 0.010227 0.012767 0.015704 0.016313 0.013417 0.008435 0.004046 0.002088 0.002505 0.003937 0.005097 0.005411 0.004734 0.003303 0.002118 0.002480 0.004641 0.007488 0.009560 0.010105 0.009068 0.006644 0.003818 0.001977 0.001439 0.001651 0.002229 0.003000 0.003687 0.004038 0.004032 0.003793 0.003381 0.002799 0.002212 0.001995 0.002322 0.002760 0.002582
   0.010227 0.011210 0.014318 0.016788 0.015846 0.011499 0.006191 0.002578 0.001709 0.002765 0.004188 0.004882 0.004449 0.003050 0.001598 0.001568 0.003796 0.007633 0.011438 0.013438 0.012395 0.008708 0.005089 0.003973 0.004719 0.005430 0.005595 0.005653 0.005757 0.005688 0.005333 0.004832 0.004337 0.003798 0.003103 0.002408 0.002006 0.001805 0.001357 0.000677
   0.012767 0.014318 0.017103 0.017578 0.014184 0.008647 0.003867 0.001663 0.001977 0.003457 0.004618 0.004599 0.003359 0.001720 0.001189 0.003100 0.007646 0.013562 0.018261 0.018803 0.014857 0.010668 0.010525 0.013102 0.014422 0.013497 0.011795 0.010306 0.008959 0.007540 0.006205 0.005250 0.004689 0.004195 0.003524 0.002844 0.002351 0.001872 0.001260 0.000998
   0.015704 0.016788 0.017578 0.015299 0.010276 0.005106 0.002010 0.001542 0.002828 0.004386 0.004942 0.004044 0.002332 0.001253 0.002310 0.006347 0.013024 0.020115 0.023641 0.021374 0.017180 0.017396 0.021923 0.025066 0.024128 0.021040 0.017864 0.014809 0.011545 0.008462 0.006330 0.005401 0.005146 0.004808 0.004163 0.003524 0.003091 0.002729 0.002442 0.002706
   0.016313 0.015846 0.014184 0.010276 0.005599 0.002299 0.001332 0.002293 0.004023 0.005167 0.004838 0.003285 0.001797 0.001833 0.004398 0.009819 0.017029 0.022772 0.023585 0.020760 0.020432 0.025260 0.030631 0.031944 0.029796 0.026597 0.022846 0.017893 0.012311 0.007976 0.006056 0.005920 0.006068 0.005611 0.004741 0.004017 0.003639 0.003472 0.003571 0.004252
   0.013417 0.011499 0.008647 0.005106 0.002299 0.001266 0.001956 0.003584 0.005058 0.005358 0.004260 0.002680 0.001937 0.002950 0.006169 0.011370 0.016836 0.019726 0.019209 0.018755 0.022198 0.028224 0.032513 0.033518 0.032549 0.030111 0.025120 0.017655 0.010569 0.006885 0.006616 0.007391 0.007288 0.006143 0.004774 0.003828 0.003428 0.003468 0.003957 0.004843
   0.008435 0.006191 0.003867 0.002010 0.001332 0.001956 0.003373 0.004800 0.005445 0.004901 0.003601 0.002523 0.002452 0.003764 0.006499 0.010005 0.012777 0.013692 0.013811 0.015812 0.020721 0.026483 0.030681 0.032806 0.032870 0.029680 0.022442 0.013726 0.008209 0.007593 0.009164 0.009658 0.008286 0.006077 0.004147 0.003001 0.002658 0.002954 0.003627 0.004285
   0.004046 0.002578 0.001663 0.001542 0.002293 0.003584 0.004800 0.005391 0.005143 0.004286 0.003346 0.002803 0.002953 0.003912 0.005467 0.006991 0.007891 0.008341 0.009528 0.012767 0.018007 0.023606 0.027889 0.030008 0.028996 0.023776 0.015769 0.009782 0.009245 0.012000 0.013504 0.011998 0.008741 0.005487 0.003183 0.002058 0.001934 0.002385 0.002889 0.003079
   0.002088 0.001709 0.001977 0.002828 0.004023 0.005058 0.005445 0.005143 0.004544 0.003992 0.003553 0.003272 0.003316 0.003712 0.004197 0.004520 0.004786 0.005482 0.007383 0.011102 0.016146 0.020866 0.023749 0.023955 0.020839 0.015053 0.010397 0.011027 0.015768 0.019113 0.017873 0.013387 0.008385 0.004519 0.002272 0.001486 0.001637 0.002045 0.002193 0.001979
   0.002505 0.002765 0.003457 0.004386 0.005167 0.005358 0.004901 0.004286 0.003992 0.003946 0.003837 0.003662 0.003617 0.003697 0.003736 0.003788 0.004167 0.005287 0.007619 0.011206 0.015019 0.017516 0.017816 0.015748 0.011927 0.009176 0.011559 0.018894 0.025159 0.025249 0.019886 0.012875 0.007040 0.003356 0.001707 0.001466 0.001811 0.002034 0.001812 0.001309
   0.003937 0.004188 0.004618 0.004942 0.004838 0.004260 0.003601 0.003346 0.003553 0.003837 0.003922 0.003917 0.004015 0.004192 0.004391 0.004781 0.005653 0.007248 0.009595 0.012129 0.013734 0.013571 0.011609 0.008642 0.007009 0.010445 0.019765 0.029331 0.032152 0.027180 0.018586 0.010596 0.005143 0.002403 0.001670 0.001946 0.002338 0.002295 0.001708 0.000996
   0.005097 0.004882 0.004599 0.004044 0.003285 0.002680 0.002523 0.002803 0.003272 0.003662 0.003917 0.004207 0.004666 0.005269 0.006042 0.007141 0.008654 0.010442 0.012105 0.013000 0.012497 0.010453 0.007583 0.005986 0.009108 0.018662 0.030443 0.036701 0.033895 0.025046 0.015225 0.007699 0.003461 0.002023 0.002212 0.002862 0.003176 0.002789 0.001827 0.000989
   0.005411 0.004449 0.003359 0.002332 0.001797 0.001937 0.002452 0.002953 0.003316 0.003617 0.004015 0.004666 0.005633 0.006922 0.008570 0.010496 0.012373 0.013815 0.014543 0.014237 0.012577 0.009849 0.007762 0.009523 0.017547 0.029564 0.038606 0.039127 0.031704 0.020969 0.011325 0.005081 0.002518 0.002540 0.003617 0.004545 0.004653 0.003789 0.002395 0.001493
   0.004734 0.003050 0.001720 0.001253 0.001833 0.002950 0.003764 0.003912 0.003712 0.003697 0.004192 0.005269 0.006922 0.009142 0.011734 0.014177 0.015994 0.017129 0.017586 0.016961 0.014947 0.012592 0.012756 0.018369 0.029039 0.039522 0.043332 0.038282 0.027500 0.015999 0.007512 0.003455 0.003170 0.004882 0.006835 0.007878 0.007524 0.005950 0.003983 0.002961
   0.003303 0.001598 0.001189 0.002310 0.004398 0.006169 0.006499 0.005467 0.004197 0.003736 0.004391 0.006042 0.008570 0.011734 0.014910 0.017489 0.019479 0.021120 0.022009 0.021333 0.019423 0.018619 0.021998 0.030702 0.041621 0.048263 0.045736 0.034996 0.021525 0.010751 0.005244 0.004721 0.007265 0.010638 0.013149 0.013903 0.012751 0.010210 0.007387 0.005837
   0.002118 0.001568 0.003100 0.006347 0.009819 0.011370 0.010005 0.006991 0.004520 0.003788 0.004781 0.007141 0.010496 0.014177 0.017489 0.020433 0.023402 0.026021 0.027125 0.026523 0.026040 0.028302 0.035062 0.045505 0.054576 0.055115 0.044698 0.028779 0.015289 0.008442 0.008028 0.011687 0.016732 0.021049 0.023434 0.023481 0.021304 0.017487 0.013231 0.010389
   0.002480 0.003796 0.007646 0.013024 0.017029 0.016836 0.012777 0.007891 0.004786 0.004167 0.005653 0.008654 0.012373 0.015994 0.019479 0.023402 0.027558 0.030580 0.031957 0.033262 0.036302 0.041764 0.049948 0.059410 0.063593 0.055689 0.038604 0.022562 0.014399 0.014335 0.019460 0.026516 0.032885 0.037110 0.038793 0.037858 0.034231 0.028405 0.021964 0.017268
   0.004641 0.007633 0.013562 0.020115 0.022772 0.019726 0.013692 0.008341 0.005482 0.005287 0.007248 0.010442 0.013815 0.017129 0.021120 0.026021 0.030580 0.034012 0.037880 0.043599 0.049614 0.054041 0.058857 0.063804 0.060927 0.047418 0.032526 0.025056 0.026056 0.032888 0.042453 0.051557 0.057977 0.061317 0.061832 0.059087 0.052669 0.043791 0.034831 0.027748
   0.007488 0.011438 0.018261 0.023641 0.023585 0.019209 0.013811 0.009528 0.007383 0.007619 0.009595 0.012105 0.014543 0.017586 0.022009 0.027125 0.031957 0.037880 0.046654 0.055442 0.057742 0.054149 0.052916 0.052766 0.047148 0.040960 0.041153 0.046936 0.056170 0.068171 0.080687 0.090193 0.095333 0.096995 0.095194 0.088638 0.077816 0.065714 0.054067 0.041938
   0.009560 0.013438 0.018803 0.021374 0.020760 0.018755 0.015812 0.012767 0.011102 0.011206 0.012129 0.013000 0.014237 0.016961 0.021333 0.026523 0.033262 0.043599 0.055442 0.059488 0.050498 0.039633 0.036222 0.036661 0.043955 0.061709 0.080849 0.095167 0.108286 0.122815 0.135398 0.142477 0.144716 0.143522 0.137535 0.125640 0.110939 0.096823 0.080491 0.056740
   0.010105 0.012395 0.014857 0.017180 0.020432 0.022198 0.020721 0.018007 0.016146 0.015019 0.013734 0.012497 0.012577 0.014947 0.019423 0.026040 0.036302 0.049614 0.057742 0.050498 0.034177 0.024845 0.026711 0.045612 0.086298 0.129101 0.154250 0.166681 0.178414 0.190787 0.198484 0.200057 0.198240 0.193206 0.182379 0.166994 0.152104 0.136898 0.110719 0.068785
   0.009068 0.008708 0.010668 0.017396 0.025260 0.028224 0.026483 0.023606 0.020866 0.017516 0.013571 0.010453 0.009849 0.012592 0.018619 0.028302 0.041764 0.054041 0.054149 0.039633 0.024845 0.023708 0.049358 0.111414 0.184300 0.228640 0.241587 0.245205 0.251224 0.255990 0.254913 0.250081 0.244298 0.235628 0.222457 0.208814 0.197690 0.179669 0.138296 0.078145
   0.006644 0.005089 0.010525 0.021923 0.030631 0.032513 0.030681 0.027889 0.023749 0.017816 0.011609 0.007583 0.007762 0.012756 0.021998 0.035062 0.049948 0.058857 0.052916 0.036222 0.026711 0.049358 0.123139 0.224262 0.296357 0.318302 0.314917 0.310850 0.308994 0.303113 0.292889 0.282962 0.274517 0.264792 0.254119 0.246646 0.239283 0.214148 0.156006 0.082480
   0.003818 0.003973 0.013102 0.025066 0.031944 0.033518 0.032806 0.030008 0.023955 0.015748 0.008642 0.005986 0.009523 0.018369 0.030702 0.045505 0.059410 0.063804 0.052766 0.036661 0.045612 0.111414 0.224262 0.324524 0.368943 0.370584 0.361107 0.352373 0.339830 0.321582 0.303804 0.292322 0.286233 0.281361 0.277329 0.275342 0.266102 0.228602 0.155732 0.075714
   0.001977 0.004719 0.014422 0.024128 0.029796 0.032549 0.032870 0.028996 0.020839 0.011927 0.007009 0.009108 0.017547 0.029039 0.041621 0.054576 0.063593 0.060927 0.047148 0.043955 0.086298 0.184300 0.296357 0.368943 0.392224 0.390584 0.380752 0.361133 0.330671 0.299624 0.280448 0.277740 0.285100 0.291625 0.293398 0.289584 0.268864 0.215096 0.133880 0.058963
   0.001439 0.005430 0.013497 0.021040 0.026597 0.030111 0.029680 0.023776 0.015053 0.009176 0.010445 0.018662 0.029564 0.039522 0.048263 0.055115 0.055689 0.047418 0.040960 0.061709 0.129101 0.228640 0.318302 0.370584 0.390584 0.390525 0.368808 0.323967 0.272953 0.238920 0.234433 0.257295 0.287250 0.303226 0.301811 0.284621 0.244144 0.176276 0.098533 0.040492
   0.001651 0.005595 0.011795 0.017864 0.022846 0.025120 0.022442 0.015769 0.010397 0.011559 0.019765 0.030443 0.038606 0.043332 0.045736 0.044698 0.038604 0.032526 0.041153 0.080849 0.154250 0.241587 0.314917 0.361107 0.380752 0.368808 0.318204 0.246799 0.191830 0.176994 0.206727 0.262425 0.305850 0.315964 0.298255 0.259020 0.198802 0.126975 0.063924 0.026258
   0.002229 0.005653 0.010306 0.014809 0.017893 0.017655 0.013726 0.009782 0.011027 0.018894 0.029331 0.036701 0.039127 0.038282 0.034996 0.028779 0.022562 0.025056 0.046936 0.095167 0.166681 0.245205 0.310850 0.352373 0.361133 0.323967 0.246799 0.171606 0.140066 0.164926 0.232737 0.301748 0.331807 0.319127 0.278057 0.217624 0.147478 0.083596 0.039094 0.018086
   0.003000 0.005757 0.008959 0.011545 0.012311 0.010569 0.008209 0.009246 0.015768 0.025159 0.032152 0.033895 0.031704 0.027500 0.021525 0.015289 0.014399 0.026056 0.056170 0.108286 0.178414 0.251224 0.308994 0.339830 0.330671 0.272953 0.191830 0.140066 0.150928 0.217333 0.298121 0.344750 0.341403 0.302175 0.241253 0.169592 0.102694 0.053412 0.024976 0.015826
   0.003687 0.005688 0.007540 0.008462 0.007976 0.006885 0.007593 0.012000 0.019113 0.025249 0.027180 0.025046 0.020969 0.015999 0.010751 0.008442 0.014335 0.032888 0.068171 0.122815 0.190787 0.255990 0.303113 0.321582 0.299624 0.238920 0.176994 0.164926 0.217333 0.297642 0.352177 0.356667 0.321756 0.263655 0.192858 0.123282 0.069154 0.035048 0.018601 0.017961
   0.004038 0.005333 0.006205 0.006330 0.006056 0.006616 0.009164 0.013504 0.017873 0.019886 0.018586 0.015225 0.011325 0.007512 0.005244 0.008028 0.019460 0.042453 0.080687 0.135398 0.198484 0.254913 0.292889 0.303804 0.280448 0.234433 0.206727 0.232737 0.298121 0.352177 0.361778 0.331178 0.276906 0.209762 0.140975 0.084245 0.046089 0.024467 0.016611 0.021705
   0.004032 0.004832 0.005250 0.005401 0.005920 0.007391 0.009658 0.011998 0.013387 0.012875 0.010596 0.007699 0.005081 0.003455 0.004721 0.011687 0.026516 0.051557 0.090193 0.142477 0.200057 0.250081 0.282962 0.292322 0.277740 0.257295 0.262425 0.301748 0.344750 0.356667 0.331178 0.280684 0.217106 0.151127 0.094910 0.055350 0.031044 0.018404 0.016375 0.024482
   0.003793 0.004337 0.004689 0.005146 0.006068 0.007288 0.008286 0.008741 0.008385 0.007040 0.005143 0.003461 0.002518 0.003170 0.007265 0.016732 0.032885 0.057977 0.095333 0.144716 0.198240 0.244298 0.274517 0.286233 0.285100 0.287250 0.305850 0.331807 0.341403 0.321756 0.276906 0.217106 0.154051 0.099740 0.060896 0.036225 0.021512 0.014848 0.016341 0.025368
   0.003381 0.003798 0.004195 0.004808 0.005611 0.006143 0.006077 0.005487 0.004519 0.003356 0.002403 0.002023 0.002540 0.004882 0.010638 0.021049 0.037110 0.061317 0.096995 0.143522 0.193206 0.235628 0.264792 0.281361 0.291625 0.303226 0.315964 0.319127 0.302175 0.263655 0.209762 0.151127 0.099740 0.062628 0.038906 0.024108 0.015449 0.012643 0.015830 0.024295
   0.002799 0.003103 0.003524 0.004163 0.004741 0.004774 0.004147 0.003183 0.002272 0.001707 0.001670 0.002212 0.003617 0.006835 0.013149 0.023434 0.038793 0.061832 0.095194 0.137535 0.182379 0.222457 0.254119 0.277329 0.293398 0.301811 0.298255 0.278057 0.241253 0.192858 0.140975 0.094910 0.060896 0.038906 0.025079 0.016294 0.011629 0.011055 0.014418 0.021052
   0.002212 0.002408 0.002844 0.003524 0.004017 0.003828 0.003001 0.002058 0.001486 0.001466 0.001946 0.002862 0.004545 0.007878 0.013903 0.023481 0.037858 0.059087 0.088638 0.125640 0.166994 0.208814 0.246646 0.275342 0.289584 0.284621 0.259020 0.217624 0.169592 0.123282 0.084245 0.055350 0.036225 0.024108 0.016294 0.011526 0.009373 0.009575 0.011975 0.016173
   0.001995 0.002006 0.002351 0.003091 0.003639 0.003428 0.002658 0.001934 0.001637 0.001811 0.002338 0.003176 0.004653 0.007524 0.012751 0.021304 0.034231 0.052669 0.077816 0.110939 0.152104 0.197690 0.239283 0.266102 0.268864 0.244144 0.198802 0.147478 0.102694 0.069154 0.046089 0.031044 0.021512 0.015449 0.011629 0.009373 0.008241 0.008130 0.009201 0.011564
   0.002322 0.001805 0.001872 0.002729 0.003472 0.003468 0.002954 0.002385 0.002045 0.002034 0.002295 0.002789 0.003789 0.005950 0.010210 0.017487 0.028405 0.043791 0.065714 0.096823 0.136898 0.179669 0.214148 0.228602 0.215096 0.176276 0.126975 0.083596 0.053412 0.035048 0.024467 0.018404 0.014848 0.012643 0.011055 0.009575 0.008130 0.007167 0.007313 0.008872
   0.002760 0.001357 0.001260 0.002442 0.003571 0.003957 0.003627 0.002889 0.002193 0.001812 0.001708 0.001827 0.002395 0.003983 0.007387 0.013231 0.021964 0.034831 0.054067 0.080491 0.110719 0.138296 0.156006 0.155732 0.133880 0.098533 0.063924 0.039094 0.024976 0.018601 0.016611 0.016375 0.016341 0.015830 0.014418 0.011975 0.009201 0.007313 0.007009 0.007970
   0.002582 0.000677 0.000998 0.002706 0.004252 0.004843 0.004285 0.003079 0.001979 0.001309 0.000996 0.000989 0.001493 0.002961 0.005837 0.010389 0.017268 0.027748 0.041938 0.056740 0.068785 0.078145 0.082480 0.075714 0.058963 0.040492 0.026258 0.018086 0.015826 0.017961 0.021705 0.024482 0.025368 0.024295 0.021052 0.016173 0.011564 0.008872 0.007970 0.007539

   0.010644 0.012767 0.016698 0.019121 0.017451 0.012347 0.006620 0.002845 0.001866 0.002776 0.004060 0.004689 0.004290 0.003014 0.001728 0.001877 0.004393 0.008833 0.013575 0.016384 0.015305 0.010557 0.005456 0.003204 0.003491 0.004274 0.004697 0.004963 0.005176 0.005172 0.004882 0.004458 0.004043 0.003579 0.002948 0.002289 0.001885 0.001671 0.001258 0.000688