CRYSTAL
PRIMVEC
 2.73823450000000 2.73823450000000 0.00000000000000
 0.00000000000000 2.73823450000000 2.73823450000000
 2.73823450000000 0.00000000000000 2.73823450000000
PRIMCOORD
 2 1
 14     0.00000000000000     0.00000000000000     0.00000000000000
 14     1.36911720000000     1.36911720000000     1.36911720000000
BEGIN_BLOCK_DATAGRID_3D
 data
 BEGIN_DATAGRID_3Dgrid#1
  60 60 60
  -5.750292 -5.750292 -5.750292
  8.077792 8.077792 0.000000
  0.000000 8.077792 8.077792
  8.077792 0.000000 8.077792
   0.004935 0.003193 0.003886 0.007909 0.014433 0.023308 0.033221 0.009377 0.000878 0.000788 0.010054 0.062220 0.191121 0.323876 0.099842 0.009040 0.000303 0.000775 0.001205 0.001400 0.001422 0.001350 0.001606 0.002588 0.001014 0.000315 0.000499 0.007083 0.040297 0.011278 0.011286 0.021420 0.027344 0.019103 0.007144 0.001845 0.000942 0.003717 0.032339 0.140415 0.030866 0.001912 0.000069 0.000163 0.000640 0.001287 0.001103 0.000395 0.000537 0.008724 0.066181 0.150813 0.053854 0.011629 0.002383 0.000724 0.001517 0.000674 0.000311 0.000814
   0.003193 0.003662 0.008479 0.019692 0.039323 0.087272 0.160318 0.023884 0.000616 0.001321 0.012274 0.055950 0.160097 0.278108 0.045801 0.010235 0.007206 0.027565 0.012414 0.007434 0.005029 0.002604 0.000936 0.001220 0.001560 0.002045 0.004705 0.036983 0.163473 0.047329 0.024895 0.028035 0.027786 0.018083 0.007154 0.001843 0.000577 0.000850 0.004615 0.017913 0.003923 0.000363 0.000112 0.000261 0.000586 0.000766 0.000481 0.000274 0.002000 0.024021 0.114771 0.104996 0.033888 0.009703 0.006163 0.004779 0.011726 0.007708 0.001624 0.000388
   0.003886 0.008479 0.026695 0.071015 0.173556 0.326521 0.513149 0.065749 0.000525 0.003067 0.016035 0.041721 0.070963 0.043315 0.013565 0.065259 0.058317 0.213122 0.070840 0.026161 0.009971 0.002479 0.004950 0.010885 0.009417 0.010661 0.018178 0.060528 0.147599 0.072052 0.026316 0.016877 0.012992 0.009075 0.004998 0.001825 0.000476 0.000158 0.001332 0.009192 0.003067 0.001411 0.000680 0.000645 0.000665 0.000489 0.000265 0.000612 0.006038 0.036120 0.077561 0.047892 0.032507 0.072365 0.044102 0.020239 0.016102 0.032794 0.012890 0.002222
   0.007909 0.019692 0.071015 0.236665 0.480686 0.175268 0.122484 0.014928 0.001675 0.008677 0.018480 0.020414 0.012291 0.004045 0.017713 0.033350 0.144098 0.308604 0.096366 0.026147 0.005815 0.005491 0.034473 0.053154 0.051311 0.050620 0.066711 0.190027 0.593306 0.104661 0.011770 0.005691 0.004874 0.005525 0.005353 0.002978 0.000943 0.000319 0.009061 0.066960 0.021367 0.004630 0.002045 0.001471 0.000917 0.000438 0.000425 0.001992 0.010572 0.031221 0.037478 0.047324 0.146254 0.450581 0.128626 0.048865 0.069132 0.140005 0.050697 0.007847
   0.014433 0.039322 0.173552 0.480687 0.180904 0.043664 0.010201 0.004016 0.022214 0.021046 0.014760 0.006376 0.001252 0.015399 0.118409 0.123660 0.518044 0.194609 0.052119 0.012569 0.003675 0.015503 0.065217 0.103989 0.110221 0.110923 0.153109 0.266966 0.173972 0.027343 0.003225 0.002164 0.004088 0.007128 0.007597 0.004147 0.001523 0.000736 0.002588 0.013889 0.006851 0.003833 0.003074 0.002053 0.000954 0.000665 0.001904 0.006168 0.013380 0.017937 0.039757 0.194808 0.384199 0.226451 0.131563 0.134190 0.250810 0.593904 0.093079 0.006406
   0.023308 0.087268 0.326495 0.175269 0.043665 0.006067 0.001312 0.021227 0.126884 0.032245 0.006948 0.001401 0.000244 0.006585 0.074512 0.260552 0.216264 0.074047 0.020690 0.004938 0.010274 0.068461 0.107236 0.144731 0.165896 0.202195 0.337725 0.399794 0.067536 0.004218 0.001259 0.003266 0.007426 0.009405 0.006272 0.002339 0.000776 0.000476 0.000858 0.002088 0.002713 0.003103 0.002670 0.001485 0.001113 0.003894 0.013388 0.016866 0.012295 0.011215 0.105067 0.657606 0.284823 0.195383 0.224295 0.352798 0.658988 0.201647 0.023568 0.004863
   0.033217 0.160322 0.513211 0.122493 0.010201 0.001312 0.006530 0.025427 0.042959 0.011115 0.002050 0.000328 0.000531 0.016486 0.112381 0.102228 0.056997 0.022738 0.006496 0.002703 0.042269 0.298463 0.237452 0.251282 0.300330 0.425806 0.640250 0.143979 0.011097 0.001413 0.004547 0.011027 0.014117 0.010500 0.004115 0.000954 0.000249 0.000248 0.000562 0.001059 0.001556 0.001706 0.001240 0.001290 0.009862 0.057717 0.082650 0.035472 0.011622 0.008373 0.085530 0.518622 0.290697 0.318327 0.499984 0.775793 0.337289 0.055868 0.007129 0.004069
   0.009376 0.023884 0.065758 0.014929 0.004016 0.021227 0.025427 0.048684 0.013556 0.002802 0.000747 0.000370 0.000856 0.005157 0.021420 0.018571 0.011773 0.004943 0.001669 0.003222 0.099345 0.687287 0.467087 0.495555 0.616566 0.608939 0.172462 0.017580 0.002564 0.010995 0.027629 0.035190 0.029091 0.014470 0.003352 0.000418 0.000084 0.000169 0.000322 0.000459 0.000570 0.000555 0.001069 0.016899 0.142930 0.394150 0.280847 0.067502 0.013261 0.006322 0.092838 0.643738 0.499105 0.554036 0.743469 0.773514 0.197674 0.023368 0.003124 0.003005
   0.000878 0.000616 0.000525 0.001675 0.022214 0.126883 0.042959 0.013556 0.003447 0.001350 0.001145 0.001412 0.001970 0.002685 0.003145 0.002829 0.001780 0.000803 0.000772 0.006025 0.079710 0.442760 0.547752 0.513898 0.326447 0.122521 0.016674 0.004479 0.026324 0.075971 0.101593 0.096781 0.070287 0.023623 0.003213 0.000208 0.000124 0.000410 0.000240 0.000137 0.000144 0.000843 0.016384 0.174180 0.746877 0.772610 0.402286 0.095770 0.018063 0.004875 0.028702 0.254911 0.749885 0.710868 0.706371 0.703988 0.116962 0.005949 0.000746 0.001299
   0.000788 0.001321 0.003067 0.008677 0.021046 0.032245 0.011115 0.002802 0.001350 0.001877 0.003360 0.004360 0.004170 0.002955 0.001709 0.000941 0.000608 0.000766 0.002370 0.010694 0.043469 0.114232 0.150139 0.127509 0.053133 0.009245 0.005883 0.045712 0.160381 0.221383 0.235198 0.260536 0.162223 0.030766 0.002177 0.000137 0.000689 0.002137 0.000401 0.000046 0.000417 0.009146 0.118085 0.605196 0.723278 0.826701 0.395364 0.122235 0.029042 0.004820 0.006213 0.054976 0.226714 0.252938 0.189692 0.100125 0.013736 0.000516 0.000143 0.000417
   0.010054 0.012274 0.016035 0.018480 0.014760 0.006948 0.002050 0.000747 0.001145 0.003360 0.006641 0.007879 0.006550 0.004391 0.003045 0.003125 0.005066 0.009560 0.017820 0.030955 0.043304 0.047502 0.039201 0.018805 0.004422 0.005339 0.052631 0.231037 0.326795 0.357754 0.483560 0.592305 0.225226 0.024859 0.000804 0.001178 0.001684 0.003249 0.000536 0.000062 0.003213 0.042702 0.208356 0.497999 0.820104 0.685812 0.344431 0.154686 0.046979 0.005920 0.001063 0.005081 0.019913 0.024240 0.015318 0.002632 0.000318 0.000184 0.000291 0.000600
   0.062220 0.055950 0.041720 0.020414 0.006376 0.001401 0.000328 0.000370 0.001412 0.004360 0.007879 0.009184 0.009326 0.011275 0.020407 0.042362 0.068115 0.092226 0.109378 0.102375 0.072693 0.039040 0.013785 0.003037 0.003394 0.039040 0.209827 0.347731 0.389965 0.528071 0.746561 0.700529 0.122446 0.006302 0.002499 0.007599 0.002899 0.004344 0.000653 0.000475 0.009197 0.064741 0.233275 0.693721 0.760379 0.482565 0.269837 0.136765 0.035950 0.003719 0.000336 0.000600 0.001394 0.002221 0.003059 0.003920 0.003375 0.001981 0.001546 0.001921
   0.191123 0.160103 0.070959 0.012291 0.001252 0.000244 0.000531 0.000856 0.001970 0.004170 0.006550 0.009326 0.018841 0.059456 0.166769 0.302929 0.392057 0.401391 0.351798 0.226273 0.095698 0.026747 0.005003 0.002339 0.019859 0.116961 0.274830 0.339279 0.441885 0.659526 0.771095 0.287632 0.030716 0.002275 0.010714 0.003693 0.006175 0.006508 0.000954 0.002680 0.034818 0.169857 0.473892 0.770747 0.516727 0.300272 0.161225 0.061857 0.012527 0.002155 0.003568 0.011204 0.021049 0.026808 0.031085 0.032840 0.022006 0.008799 0.003937 0.003275
   0.323876 0.278109 0.043314 0.004045 0.015399 0.006585 0.016486 0.005157 0.002685 0.002955 0.004391 0.011275 0.059456 0.285658 0.663339 0.755558 0.722816 0.656661 0.483434 0.227585 0.068162 0.014024 0.003412 0.010082 0.057103 0.171698 0.252523 0.319820 0.432653 0.514485 0.277132 0.048313 0.003590 0.003421 0.003221 0.002364 0.006304 0.017990 0.003132 0.003481 0.088251 0.578317 0.737407 0.495218 0.284952 0.159472 0.073654 0.023933 0.007649 0.010328 0.036583 0.102962 0.163131 0.164051 0.136808 0.098401 0.049176 0.014075 0.003761 0.002686
   0.099835 0.045800 0.013565 0.017713 0.118410 0.074512 0.112381 0.021420 0.003145 0.001709 0.003045 0.020407 0.166769 0.663339 0.858063 0.835169 0.776964 0.636501 0.369683 0.137731 0.035788 0.008580 0.008187 0.032199 0.100951 0.174607 0.221028 0.262689 0.266584 0.147656 0.037369 0.010810 0.013244 0.014456 0.004537 0.005522 0.023148 0.113098 0.018752 0.003106 0.036904 0.225403 0.326748 0.237309 0.144418 0.077529 0.035618 0.017992 0.020560 0.052954 0.156024 0.335676 0.428818 0.349066 0.222988 0.130327 0.053464 0.009920 0.001862 0.002315
   0.009039 0.010234 0.065256 0.033349 0.123660 0.260550 0.102228 0.018571 0.002829 0.000941 0.003125 0.042362 0.302929 0.755557 0.835169 0.796649 0.684278 0.455086 0.208271 0.069157 0.020519 0.011733 0.023095 0.059547 0.111608 0.148274 0.164224 0.141841 0.071030 0.018789 0.014217 0.063074 0.071467 0.016853 0.013027 0.022424 0.074506 0.305079 0.052133 0.005082 0.015770 0.074239 0.134825 0.114926 0.071788 0.041239 0.029418 0.037008 0.072082 0.158607 0.321370 0.507032 0.567365 0.422564 0.229886 0.108635 0.028058 0.003312 0.001141 0.004319
   0.000303 0.007206 0.058317 0.144098 0.518044 0.216264 0.056997 0.011773 0.001780 0.000608 0.005066 0.068114 0.392055 0.722812 0.776964 0.684279 0.481984 0.251761 0.102101 0.039357 0.022705 0.024390 0.035390 0.055966 0.081984 0.098102 0.081234 0.037919 0.010199 0.012523 0.059731 0.087172 0.038356 0.033189 0.051028 0.093002 0.229733 0.448255 0.085054 0.010077 0.011941 0.037742 0.063876 0.052096 0.034098 0.030712 0.049983 0.101246 0.186997 0.305555 0.456284 0.591380 0.584584 0.364293 0.147548 0.042442 0.006378 0.000958 0.005273 0.017786
   0.000775 0.027565 0.213123 0.308605 0.194610 0.074048 0.022738 0.004943 0.000803 0.000766 0.009560 0.092225 0.401385 0.656670 0.636510 0.455087 0.251761 0.116326 0.056125 0.040484 0.036424 0.027821 0.023674 0.030742 0.044272 0.042844 0.021492 0.006960 0.015339 0.079591 0.126627 0.085369 0.085961 0.115508 0.174582 0.332847 0.658820 0.401950 0.099872 0.018813 0.011007 0.020791 0.026418 0.019180 0.019317 0.044090 0.111738 0.216101 0.322487 0.424010 0.529502 0.577206 0.438612 0.180868 0.046782 0.008199 0.002113 0.011491 0.032180 0.061022
   0.001205 0.012414 0.070840 0.096366 0.052119 0.020690 0.006496 0.001669 0.000772 0.002370 0.017820 0.109378 0.351798 0.483440 0.369685 0.208271 0.102101 0.056125 0.050616 0.051665 0.032293 0.014601 0.009127 0.012036 0.015696 0.010319 0.006163 0.021225 0.121602 0.302940 0.223945 0.227450 0.278319 0.349459 0.494810 0.756525 0.822945 0.438220 0.136067 0.027212 0.008698 0.009062 0.007864 0.008537 0.036391 0.152218 0.215811 0.308739 0.407133 0.480859 0.510354 0.409954 0.188116 0.052939 0.013264 0.010307 0.014710 0.077053 0.062799 0.069629
   0.001400 0.007434 0.026161 0.026147 0.012569 0.004938 0.002703 0.003222 0.006025 0.010694 0.030955 0.102375 0.226273 0.227585 0.137731 0.069157 0.039357 0.040484 0.051665 0.036946 0.015988 0.005186 0.002390 0.003605 0.006386 0.011703 0.036957 0.164138 0.497846 0.529666 0.524889 0.616543 0.699153 0.788531 0.892756 0.887475 0.745548 0.471710 0.153748 0.028708 0.005314 0.002547 0.003668 0.018349 0.135363 0.619653 0.312008 0.333716 0.426299 0.449304 0.361282 0.176472 0.058365 0.031392 0.046585 0.067335 0.043633 0.117883 0.059450 0.038374
   0.001422 0.005029 0.009971 0.005815 0.003675 0.010274 0.042270 0.099356 0.079803 0.043482 0.043304 0.072692 0.095697 0.068162 0.035788 0.020519 0.022705 0.036424 0.032293 0.015988 0.007062 0.002125 0.001494 0.010066 0.050480 0.145005 0.239730 0.589684 0.891328 0.903529 0.921685 0.930142 0.920701 0.882384 0.805088 0.718911 0.641782 0.436516 0.140993 0.027745 0.007205 0.002150 0.012590 0.035868 0.122648 0.601766 0.272502 0.295945 0.356587 0.304069 0.159656 0.059164 0.052952 0.117307 0.199710 0.067922 0.059085 0.165814 0.078401 0.026194
   0.001350 0.002604 0.002479 0.005491 0.015503 0.068461 0.298467 0.687379 0.443499 0.114332 0.047502 0.039040 0.026747 0.014024 0.008579 0.011732 0.024390 0.027821 0.014601 0.005186 0.002125 0.004373 0.007286 0.059140 0.246541 0.731802 0.712801 0.821790 0.892641 0.868750 0.826218 0.782460 0.729120 0.657607 0.588806 0.558010 0.531979 0.356602 0.125176 0.037761 0.032672 0.006678 0.024769 0.053997 0.052421 0.166510 0.150734 0.196617 0.201989 0.125841 0.051283 0.058275 0.167274 0.179616 0.124540 0.098271 0.146339 0.328632 0.169407 0.048830
   0.001606 0.000936 0.004950 0.034472 0.065216 0.107236 0.237452 0.467106 0.547903 0.150160 0.039201 0.013785 0.005003 0.003412 0.008187 0.023095 0.035389 0.023673 0.009127 0.002390 0.001494 0.007286 0.027849 0.139218 0.444563 0.793477 0.762225 0.768979 0.758931 0.715424 0.654211 0.585130 0.517361 0.462721 0.438013 0.449147 0.436703 0.293915 0.123863 0.058845 0.026569 0.003288 0.004622 0.016966 0.035506 0.059104 0.080229 0.093107 0.073695 0.034826 0.039268 0.150359 0.161474 0.152239 0.182054 0.231235 0.353897 0.645125 0.329225 0.122097
   0.002588 0.001220 0.010885 0.053153 0.103989 0.144731 0.251279 0.495556 0.513906 0.127510 0.018805 0.003037 0.002339 0.010082 0.032199 0.059547 0.055966 0.030742 0.012036 0.003605 0.010066 0.059140 0.139219 0.366774 0.772607 0.748836 0.718703 0.704006 0.663533 0.588059 0.489344 0.400183 0.345573 0.329314 0.348430 0.385997 0.376909 0.261635 0.129281 0.075347 0.014617 0.001308 0.002756 0.012516 0.031455 0.049208 0.056502 0.045349 0.022355 0.016455 0.074801 0.105588 0.131427 0.229289 0.374737 0.522090 0.718694 0.830809 0.342850 0.119148
   0.001014 0.001560 0.009417 0.051311 0.110221 0.165896 0.300328 0.616564 0.326446 0.053133 0.004422 0.003394 0.019859 0.057103 0.100951 0.111608 0.081984 0.044272 0.015696 0.006386 0.050480 0.246542 0.444564 0.772608 0.749625 0.708105 0.690044 0.649466 0.558751 0.424681 0.300481 0.231377 0.220777 0.253751 0.312269 0.364978 0.353498 0.251237 0.132176 0.062851 0.007870 0.001735 0.008564 0.028137 0.059056 0.087430 0.084193 0.040547 0.009597 0.017560 0.109044 0.091984 0.193700 0.428500 0.700544 0.872801 0.917512 0.663390 0.181115 0.034825
   0.000315 0.002045 0.010661 0.050620 0.110923 0.202188 0.425787 0.608919 0.122519 0.009245 0.005339 0.039040 0.116961 0.171698 0.174607 0.148274 0.098102 0.042844 0.010319 0.011703 0.145005 0.731802 0.793477 0.748836 0.708105 0.688887 0.650161 0.552269 0.393324 0.238601 0.147113 0.125704 0.163506 0.241134 0.326275 0.379565 0.359980 0.261453 0.139180 0.031827 0.003280 0.004654 0.024598 0.075603 0.164459 0.258184 0.231931 0.072134 0.009009 0.011566 0.061321 0.130680 0.347771 0.723741 0.935235 0.961483 0.839242 0.431874 0.073114 0.011426
   0.000499 0.004706 0.018179 0.066710 0.153108 0.337724 0.640245 0.172459 0.016674 0.005883 0.052631 0.209827 0.274830 0.252522 0.221028 0.164224 0.081234 0.021492 0.006163 0.036957 0.239730 0.712801 0.762225 0.718703 0.690044 0.650161 0.554314 0.393411 0.226962 0.115962 0.074595 0.096208 0.178496 0.290066 0.381702 0.422799 0.396586 0.296268 0.143990 0.019697 0.002315 0.014452 0.080244 0.238806 0.487817 0.687800 0.576748 0.146118 0.013136 0.015707 0.090521 0.234268 0.607955 0.926393 0.973492 0.935468 0.741261 0.221665 0.028757 0.013777
   0.007083 0.036979 0.060528 0.190027 0.266966 0.399796 0.143978 0.017580 0.004479 0.045711 0.231037 0.347731 0.339278 0.319820 0.262689 0.141841 0.037919 0.006960 0.021225 0.164138 0.589683 0.821790 0.768979 0.704006 0.649465 0.552269 0.393411 0.233650 0.117938 0.062169 0.065347 0.134661 0.261966 0.386784 0.465053 0.495033 0.473755 0.345538 0.099403 0.009840 0.007124 0.070265 0.297781 0.641041 0.894449 0.955660 0.816286 0.216298 0.018353 0.024507 0.185294 0.440607 0.869143 0.968069 0.964088 0.914045 0.604222 0.098807 0.013430 0.026952
   0.040291 0.163428 0.147593 0.593307 0.173973 0.067536 0.011097 0.002564 0.026324 0.160380 0.326795 0.389964 0.441885 0.432653 0.266584 0.071030 0.010199 0.015339 0.121602 0.497846 0.891327 0.892641 0.758931 0.663533 0.558750 0.393324 0.226962 0.117938 0.062596 0.057914 0.113954 0.241797 0.393936 0.504148 0.566696 0.604950 0.591707 0.355023 0.053511 0.004396 0.042817 0.312233 0.745562 0.942882 0.983110 0.986653 0.875962 0.250119 0.021495 0.048643 0.415452 0.781541 0.938324 0.946713 0.948045 0.800825 0.295971 0.034242 0.012355 0.046440
   0.011277 0.047321 0.072050 0.104661 0.027343 0.004218 0.001413 0.010995 0.075971 0.221383 0.357754 0.528068 0.659525 0.514485 0.147656 0.018789 0.012523 0.079591 0.302940 0.529665 0.903529 0.868750 0.715424 0.588059 0.424681 0.238601 0.115962 0.062169 0.057914 0.108911 0.231174 0.395700 0.532897 0.620147 0.685735 0.746798 0.677959 0.205950 0.020457 0.015151 0.182959 0.763788 0.963400 0.990005 0.987113 0.992474 0.886683 0.226789 0.017895 0.079816 0.652447 0.835232 0.846538 0.911332 0.866431 0.624932 0.103643 0.006703 0.013204 0.058284
   0.011286 0.024896 0.026316 0.011770 0.003225 0.001259 0.004547 0.027629 0.101593 0.235201 0.483559 0.746549 0.771092 0.277132 0.037369 0.014217 0.059730 0.126627 0.223945 0.524889 0.921685 0.826217 0.654211 0.489344 0.300481 0.147113 0.074595 0.065347 0.113954 0.231174 0.394919 0.545437 0.651863 0.733924 0.819628 0.858601 0.590025 0.094964 0.006651 0.061166 0.486324 0.932214 0.995300 0.994356 0.995851 0.995747 0.881831 0.149924 0.007534 0.043194 0.335713 0.557781 0.696436 0.873502 0.748226 0.324931 0.035277 0.001736 0.011683 0.050454
   0.021420 0.028035 0.016877 0.005691 0.002164 0.003266 0.011027 0.035190 0.096781 0.260537 0.592306 0.700529 0.287631 0.048313 0.010810 0.063073 0.087161 0.085367 0.227450 0.616543 0.930142 0.782458 0.585130 0.400183 0.231377 0.125704 0.096208 0.134661 0.241797 0.395700 0.545437 0.661814 0.756853 0.853827 0.931587 0.845602 0.280229 0.031175 0.009212 0.137552 0.787486 0.983465 0.998066 0.997867 0.997747 0.980314 0.769565 0.098319 0.004398 0.045336 0.245914 0.419887 0.613304 0.840334 0.665079 0.106224 0.004541 0.001065 0.007321 0.025770
   0.027344 0.027786 0.012992 0.004874 0.004088 0.007426 0.014117 0.029091 0.070286 0.162222 0.225229 0.122447 0.030716 0.003590 0.013244 0.071466 0.038354 0.085961 0.278319 0.699153 0.920701 0.729120 0.517361 0.345573 0.220777 0.163506 0.178496 0.261966 0.393936 0.532897 0.651863 0.756853 0.864538 0.952846 0.939513 0.609895 0.109103 0.008962 0.024051 0.240182 0.876159 0.989179 0.990853 0.991411 0.990575 0.896146 0.293105 0.027788 0.013324 0.109110 0.315082 0.466126 0.674635 0.755811 0.217737 0.019586 0.000678 0.000956 0.003997 0.009585
   0.019103 0.018083 0.009075 0.005525 0.007128 0.009405 0.010500 0.014470 0.023623 0.030766 0.024860 0.006303 0.002275 0.003421 0.014456 0.016853 0.033189 0.115508 0.349459 0.788531 0.882384 0.657607 0.462721 0.329314 0.253751 0.241134 0.290066 0.386784 0.504148 0.620147 0.733924 0.853827 0.952846 0.960909 0.782817 0.235954 0.029689 0.005088 0.038410 0.294043 0.807419 0.929707 0.956935 0.984020 0.936828 0.730005 0.105297 0.007724 0.057411 0.292436 0.492079 0.665824 0.855939 0.739970 0.120662 0.006449 0.000838 0.001269 0.003020 0.004563
   0.007144 0.007154 0.004998 0.005353 0.007597 0.006272 0.004115 0.003352 0.003213 0.002177 0.000804 0.002499 0.010714 0.003221 0.004537 0.013027 0.051028 0.174582 0.494810 0.892756 0.805088 0.588806 0.438013 0.348430 0.312269 0.326275 0.381702 0.465053 0.566696 0.685735 0.819628 0.931587 0.939513 0.782817 0.305071 0.056559 0.007559 0.004986 0.031803 0.191221 0.529330 0.731689 0.871823 0.947261 0.744955 0.173988 0.015222 0.031041 0.206121 0.514889 0.685721 0.873183 0.907164 0.772072 0.112960 0.005062 0.001337 0.001986 0.003130 0.003212
   0.001845 0.001843 0.001825 0.002978 0.004147 0.002339 0.000954 0.000418 0.000208 0.000137 0.001178 0.007599 0.003692 0.002364 0.005522 0.022424 0.093002 0.332847 0.756525 0.887475 0.718911 0.558010 0.449147 0.385997 0.364978 0.379565 0.422799 0.495033 0.604950 0.746798 0.858601 0.845602 0.609895 0.235954 0.056559 0.010412 0.003189 0.003978 0.015449 0.070372 0.203869 0.362994 0.564472 0.686645 0.184165 0.018298 0.027015 0.158238 0.458614 0.618791 0.798284 0.898171 0.708043 0.766818 0.107543 0.003891 0.001774 0.002446 0.002864 0.002217
   0.000942 0.000577 0.000476 0.000943 0.001523 0.000776 0.000249 0.000084 0.000124 0.000689 0.001684 0.002899 0.006175 0.006304 0.023148 0.074507 0.229733 0.658820 0.822945 0.745548 0.641782 0.531979 0.436703 0.376909 0.353498 0.359980 0.396586 0.473755 0.591707 0.677959 0.590025 0.280230 0.109103 0.029689 0.007559 0.003189 0.002195 0.002330 0.005023 0.015895 0.041945 0.076703 0.107925 0.097569 0.016441 0.027274 0.213404 0.499816 0.531696 0.656392 0.855693 0.684457 0.391685 0.507716 0.069710 0.002324 0.001479 0.001766 0.001883 0.001700
   0.003717 0.000850 0.000158 0.000319 0.000736 0.000476 0.000248 0.000169 0.000410 0.002137 0.003249 0.004344 0.006508 0.017990 0.113098 0.305080 0.448255 0.401950 0.438220 0.471710 0.436516 0.356602 0.293915 0.261635 0.251237 0.261453 0.296268 0.345538 0.355023 0.205950 0.094964 0.031175 0.008962 0.005088 0.004986 0.003978 0.002330 0.001371 0.001482 0.003118 0.006678 0.009794 0.008545 0.003162 0.008771 0.140007 0.666128 0.515532 0.545169 0.751418 0.810741 0.367778 0.247924 0.101816 0.011645 0.000865 0.000722 0.001113 0.002382 0.004492
   0.032339 0.004615 0.001331 0.009055 0.002587 0.000858 0.000562 0.000322 0.000240 0.000401 0.000536 0.000653 0.000954 0.003132 0.018752 0.052133 0.085054 0.099873 0.136067 0.153748 0.140993 0.125176 0.123863 0.129279 0.132176 0.139180 0.143990 0.099403 0.053511 0.020457 0.006651 0.009212 0.024051 0.038409 0.031803 0.015449 0.005023 0.001482 0.000823 0.001053 0.001485 0.001332 0.000488 0.004551 0.057031 0.233187 0.419580 0.450551 0.666347 0.845191 0.515439 0.309418 0.542403 0.073716 0.000996 0.000273 0.000542 0.002227 0.008188 0.016474
   0.140415 0.017913 0.009186 0.066917 0.013883 0.002088 0.001059 0.000459 0.000137 0.000046 0.000062 0.000475 0.002680 0.003481 0.003106 0.005082 0.010077 0.018813 0.027212 0.028708 0.027745 0.037761 0.058843 0.075343 0.062850 0.031826 0.019697 0.009840 0.004396 0.015151 0.061167 0.137549 0.240181 0.294042 0.191221 0.070372 0.015895 0.003118 0.001053 0.000746 0.000733 0.000448 0.000298 0.032219 0.252329 0.229437 0.292876 0.522192 0.831621 0.730857 0.412401 0.574777 0.140580 0.009690 0.000162 0.000323 0.001671 0.007366 0.018990 0.023129
   0.030866 0.003923 0.003067 0.021362 0.006850 0.002713 0.001556 0.000570 0.000144 0.000417 0.003213 0.009197 0.034818 0.088251 0.036904 0.015770 0.011941 0.011006 0.008698 0.005314 0.007205 0.032672 0.026569 0.014616 0.007870 0.003280 0.002315 0.007124 0.042817 0.182960 0.486327 0.787465 0.876154 0.807420 0.529330 0.203869 0.041945 0.006678 0.001485 0.000733 0.000827 0.000581 0.000966 0.013769 0.068153 0.128516 0.288745 0.652513 0.864984 0.652128 0.255374 0.094751 0.010044 0.000191 0.000328 0.001418 0.005725 0.014316 0.018139 0.014439
   0.001912 0.000363 0.001412 0.004630 0.003833 0.003103 0.001706 0.000555 0.000843 0.009146 0.042702 0.064740 0.169857 0.578317 0.225403 0.074239 0.037742 0.020791 0.009062 0.002547 0.002150 0.006678 0.003288 0.001308 0.001735 0.004654 0.014452 0.070265 0.312233 0.763788 0.932214 0.983457 0.989178 0.929707 0.731690 0.362995 0.076702 0.009794 0.001332 0.000448 0.000581 0.000311 0.000439 0.004526 0.026480 0.097694 0.301711 0.668177 0.614716 0.170892 0.034196 0.003283 0.000270 0.000537 0.001492 0.004499 0.010321 0.014309 0.012167 0.007218
   0.000069 0.000112 0.000680 0.002045 0.003074 0.002670 0.001240 0.001069 0.016384 0.118085 0.208356 0.233275 0.473892 0.737407 0.326748 0.134825 0.063877 0.026418 0.007864 0.003668 0.012590 0.024769 0.004622 0.002756 0.008564 0.024598 0.080244 0.297781 0.745562 0.963400 0.995299 0.998062 0.990853 0.956935 0.871824 0.564474 0.107925 0.008545 0.000488 0.000298 0.000966 0.000439 0.000591 0.003629 0.020383 0.076706 0.199510 0.238157 0.104120 0.016008 0.001145 0.000384 0.000989 0.002017 0.003549 0.006171 0.009331 0.009882 0.006903 0.003621
   0.000163 0.000261 0.000645 0.001471 0.002053 0.001485 0.001290 0.016899 0.174180 0.605197 0.497999 0.693721 0.770747 0.495218 0.237309 0.114926 0.052096 0.019180 0.008537 0.018349 0.035868 0.053997 0.016966 0.012516 0.028137 0.075603 0.238806 0.641041 0.942882 0.990005 0.994356 0.997867 0.991411 0.984020 0.947261 0.686647 0.097570 0.003162 0.004551 0.032219 0.013769 0.004526 0.003629 0.007081 0.020547 0.050973 0.070763 0.036571 0.006986 0.000786 0.000452 0.001389 0.002918 0.003451 0.003652 0.004437 0.005661 0.005475 0.003779 0.002394
   0.000640 0.000586 0.000665 0.000917 0.000954 0.001113 0.009862 0.142930 0.746877 0.723278 0.820104 0.760379 0.516727 0.284952 0.144418 0.071788 0.034098 0.019317 0.036391 0.135362 0.122648 0.052421 0.035506 0.031455 0.059056 0.164459 0.487817 0.894449 0.983110 0.987113 0.995851 0.997747 0.990575 0.936828 0.744955 0.184166 0.016441 0.008771 0.057030 0.252325 0.068152 0.026480 0.020383 0.020547 0.026166 0.028440 0.015450 0.003895 0.000684 0.000424 0.001295 0.003147 0.003650 0.002923 0.002172 0.002125 0.002745 0.002975 0.002766 0.002775
   0.001287 0.000766 0.000489 0.000438 0.000665 0.003894 0.057717 0.394149 0.772610 0.826701 0.685813 0.482564 0.300271 0.159472 0.077529 0.041239 0.030712 0.044090 0.152219 0.619655 0.601760 0.166510 0.059105 0.049208 0.087430 0.258184 0.687800 0.955660 0.986653 0.992474 0.995747 0.980314 0.896146 0.730005 0.173988 0.018298 0.027274 0.140007 0.233186 0.229434 0.128508 0.097690 0.076706 0.050973 0.028440 0.010983 0.002917 0.000645 0.000363 0.000943 0.002406 0.003219 0.002653 0.001635 0.000882 0.000801 0.001295 0.002000 0.002985 0.004197
   0.001103 0.000481 0.000265 0.000425 0.001904 0.013388 0.082650 0.280846 0.402286 0.395364 0.344431 0.269837 0.161225 0.073654 0.035618 0.029418 0.049983 0.111738 0.215811 0.312007 0.272501 0.150734 0.080229 0.056502 0.084193 0.231931 0.576749 0.816290 0.875960 0.886682 0.881831 0.769565 0.293106 0.105297 0.015222 0.027015 0.213404 0.666128 0.419579 0.292866 0.288705 0.301685 0.199508 0.070763 0.015450 0.002917 0.000630 0.000320 0.000697 0.001750 0.002608 0.002472 0.001722 0.000840 0.000337 0.000291 0.000626 0.001501 0.003197 0.005035
   0.000395 0.000274 0.000612 0.001992 0.006168 0.016866 0.035472 0.067502 0.095770 0.122235 0.154686 0.136765 0.061857 0.023933 0.017992 0.037008 0.101246 0.216101 0.308738 0.333716 0.295945 0.196617 0.093107 0.045349 0.040547 0.072134 0.146118 0.216299 0.250114 0.226792 0.149925 0.098319 0.027788 0.007724 0.031041 0.158237 0.499817 0.515535 0.450552 0.522178 0.652409 0.668160 0.238157 0.036571 0.003895 0.000645 0.000320 0.000620 0.001476 0.002308 0.002521 0.002276 0.001585 0.000697 0.000218 0.000127 0.000278 0.000874 0.002096 0.003012
   0.000537 0.002000 0.006038 0.010572 0.013380 0.012295 0.011622 0.013261 0.018063 0.029042 0.046979 0.035950 0.012527 0.007649 0.020560 0.072082 0.186997 0.322486 0.407128 0.426298 0.356586 0.201989 0.073695 0.022355 0.009597 0.009009 0.013136 0.018353 0.021495 0.017895 0.007535 0.004398 0.013324 0.057411 0.206121 0.458614 0.531698 0.545173 0.666359 0.831620 0.864971 0.614714 0.104120 0.006986 0.000684 0.000363 0.000697 0.001476 0.002242 0.002656 0.003035 0.003199 0.002457 0.001144 0.000363 0.000145 0.000169 0.000385 0.000731 0.000869
   0.008724 0.024021 0.036120 0.031221 0.017937 0.011215 0.008373 0.006322 0.004875 0.004820 0.005920 0.003719 0.002155 0.010328 0.052954 0.158607 0.305554 0.424009 0.480858 0.449303 0.304069 0.125841 0.034826 0.016455 0.017560 0.011566 0.015707 0.024507 0.048643 0.079816 0.043194 0.045336 0.109110 0.292435 0.514888 0.618791 0.656394 0.751436 0.845195 0.730858 0.652130 0.170893 0.016008 0.000786 0.000424 0.000943 0.001750 0.002308 0.002656 0.003395 0.004738 0.005639 0.004674 0.002612 0.001136 0.000526 0.000361 0.000371 0.000457 0.000556
   0.066181 0.114772 0.077562 0.037478 0.039758 0.105066 0.085530 0.092838 0.028702 0.006213 0.001063 0.000336 0.003568 0.036583 0.156024 0.321370 0.456284 0.529502 0.510354 0.361282 0.159656 0.051283 0.039268 0.074801 0.109044 0.061321 0.090521 0.185294 0.415453 0.652446 0.335711 0.245914 0.315082 0.492079 0.685720 0.798284 0.855694 0.810744 0.515439 0.412402 0.255376 0.034197 0.001145 0.000452 0.001295 0.002406 0.002608 0.002521 0.003035 0.004738 0.007401 0.009169 0.008525 0.006126 0.003600 0.002134 0.001547 0.001334 0.001380 0.001615
   0.150813 0.104997 0.047892 0.047324 0.194808 0.657602 0.518621 0.643738 0.254911 0.054976 0.005081 0.000600 0.011204 0.102962 0.335676 0.507032 0.591380 0.577206 0.409954 0.176472 0.059164 0.058275 0.150358 0.105588 0.091984 0.130680 0.234268 0.440607 0.781541 0.835232 0.557781 0.419887 0.466126 0.665824 0.873183 0.898171 0.684457 0.367779 0.309417 0.574775 0.094751 0.003283 0.000384 0.001389 0.003147 0.003219 0.002472 0.002276 0.003199 0.005639 0.009169 0.012394 0.013766 0.011758 0.008508 0.007448 0.007632 0.006453 0.005015 0.004389
   0.053854 0.033888 0.032507 0.146254 0.384199 0.284823 0.290697 0.499105 0.749885 0.226714 0.019913 0.001394 0.021049 0.163129 0.428811 0.567364 0.584584 0.438612 0.188116 0.058365 0.052952 0.167274 0.161474 0.131427 0.193700 0.347771 0.607955 0.869143 0.938324 0.846538 0.696435 0.613304 0.674635 0.855939 0.907168 0.708044 0.391683 0.247923 0.542395 0.140579 0.010044 0.000270 0.000989 0.002918 0.003650 0.002653 0.001722 0.001585 0.002457 0.004674 0.008525 0.013766 0.017372 0.016537 0.018531 0.029330 0.035993 0.024334 0.012356 0.007677
   0.011629 0.009703 0.072365 0.450581 0.226451 0.195383 0.318327 0.554036 0.710868 0.252939 0.024241 0.002221 0.026808 0.164047 0.349064 0.422564 0.364293 0.180868 0.052939 0.031392 0.117308 0.179616 0.152239 0.229289 0.428500 0.723741 0.926393 0.968069 0.946713 0.911330 0.873503 0.840339 0.755812 0.739969 0.772065 0.766817 0.507716 0.101816 0.073715 0.009690 0.000191 0.000537 0.002017 0.003451 0.002923 0.001635 0.000840 0.000697 0.001144 0.002612 0.006126 0.011758 0.016537 0.024548 0.055542 0.110886 0.125952 0.062399 0.021355 0.009782