CRYSTAL
PRIMVEC
 2.73823450000000 2.73823450000000 0.00000000000000
 0.00000000000000 2.73823450000000 2.73823450000000
 2.73823450000000 0.00000000000000 2.73823450000000
PRIMCOORD
 2 1
 14     0.00000000000000     0.00000000000000     0.00000000000000
 14     1.36911720000000     1.36911720000000     1.36911720000000
BEGIN_BLOCK_DATAGRID_3D
 data
 BEGIN_DATAGRID_3Dgrid#1
  40 40 40
  -5.750292 -5.750292 -5.750292
  5.339557 5.339557 0.000000
  0.000000 5.339557 5.339557
  5.339557 0.000000 5.339557
   0.004770 0.003086 0.003756 0.007647 0.013959 0.022574 0.032306 0.009091 0.000849 0.000761 0.009729 0.060330 0.186113 0.316869 0.097180 0.008764 0.000293 0.000752 0.001165 0.001353 0.001375 0.001305 0.001552 0.002501 0.000981 0.000305 0.000484 0.006897 0.039270 0.010949 0.010915 0.020719 0.026454 0.018476 0.006907 0.001783 0.000911 0.003714 0.079753 0.557440
   0.003086 0.003540 0.008200 0.019056 0.038133 0.085181 0.157814 0.023464 0.000596 0.001277 0.011874 0.054224 0.155822 0.272285 0.044785 0.010157 0.007053 0.027021 0.012061 0.007190 0.004862 0.002517 0.000905 0.001182 0.001510 0.001979 0.004567 0.036018 0.159276 0.045948 0.024085 0.027123 0.026883 0.017490 0.006917 0.001782 0.000558 0.000836 0.010288 0.068100
   0.003756 0.008200 0.025843 0.069038 0.169904 0.320323 0.508199 0.065150 0.000512 0.002966 0.015510 0.040395 0.068849 0.042302 0.013422 0.064966 0.057084 0.209181 0.068990 0.025316 0.009642 0.002402 0.004833 0.010625 0.009189 0.010390 0.017764 0.059581 0.145592 0.070146 0.025467 0.016323 0.012564 0.008775 0.004832 0.001764 0.000460 0.000150 0.000248 0.001118
   0.007647 0.019056 0.069039 0.232313 0.475529 0.171706 0.120178 0.014659 0.001621 0.008393 0.017874 0.019749 0.011901 0.003927 0.017253 0.032747 0.141584 0.302339 0.093789 0.025305 0.005623 0.005354 0.033772 0.052386 0.050511 0.049719 0.065661 0.188826 0.592337 0.103702 0.011390 0.005502 0.004712 0.005342 0.005175 0.002879 0.000912 0.000288 0.000884 0.005638
   0.013959 0.038133 0.169900 0.475530 0.177897 0.042480 0.009889 0.003901 0.021589 0.020371 0.014274 0.006165 0.001211 0.014980 0.115230 0.121746 0.513143 0.190602 0.050547 0.012159 0.003554 0.015120 0.064284 0.103497 0.109485 0.109607 0.150868 0.261871 0.171303 0.026801 0.003119 0.002092 0.003952 0.006892 0.007346 0.004009 0.001472 0.000707 0.001075 0.002575
   0.022574 0.085177 0.320298 0.171706 0.042481 0.005873 0.001270 0.020633 0.123472 0.031288 0.006718 0.001354 0.000236 0.006395 0.072687 0.255548 0.211796 0.072000 0.020024 0.004775 0.009977 0.066656 0.105157 0.143060 0.163896 0.199274 0.333239 0.393671 0.066197 0.004085 0.001217 0.003157 0.007180 0.009093 0.006063 0.002261 0.000750 0.000459 0.000744 0.001244
   0.032302 0.157819 0.508263 0.120187 0.009889 0.001270 0.006318 0.024620 0.041665 0.010764 0.001982 0.000317 0.000514 0.016006 0.109231 0.099491 0.055305 0.022011 0.006282 0.002614 0.041469 0.293274 0.232773 0.247346 0.295941 0.420503 0.637641 0.142445 0.010849 0.001366 0.004397 0.010664 0.013652 0.010152 0.003978 0.000922 0.000240 0.000240 0.000529 0.000856
   0.009090 0.023465 0.065160 0.014660 0.003901 0.020633 0.024620 0.047164 0.013121 0.002709 0.000722 0.000357 0.000827 0.004995 0.020778 0.017984 0.011390 0.004780 0.001613 0.003123 0.098682 0.684553 0.460383 0.488457 0.610219 0.604249 0.170964 0.017326 0.002482 0.010646 0.026751 0.034066 0.028151 0.013995 0.003240 0.000404 0.000081 0.000164 0.000310 0.000422
   0.000849 0.000596 0.000512 0.001621 0.021588 0.123471 0.041665 0.013121 0.003334 0.001304 0.001107 0.001365 0.001904 0.002595 0.003041 0.002735 0.001720 0.000776 0.000746 0.005832 0.078063 0.436357 0.540444 0.506581 0.320402 0.120722 0.016374 0.004342 0.025552 0.073729 0.098608 0.093947 0.068158 0.022868 0.003107 0.000201 0.000120 0.000397 0.000235 0.000156
   0.000761 0.001277 0.002966 0.008393 0.020371 0.031288 0.010764 0.002709 0.001304 0.001814 0.003248 0.004214 0.004031 0.002857 0.001652 0.000910 0.000588 0.000741 0.002291 0.010345 0.042162 0.111384 0.146782 0.124638 0.051804 0.008983 0.005713 0.044487 0.156126 0.215751 0.229525 0.254815 0.157955 0.029853 0.002105 0.000133 0.000666 0.002068 0.000403 0.000168
   0.009729 0.011874 0.015510 0.017874 0.014274 0.006718 0.001982 0.000722 0.001107 0.003248 0.006421 0.007617 0.006333 0.004245 0.002944 0.003022 0.004902 0.009255 0.017256 0.029970 0.041923 0.045995 0.037966 0.018212 0.004279 0.005183 0.051257 0.225463 0.319527 0.350328 0.476278 0.586015 0.220567 0.024194 0.000778 0.001142 0.001630 0.003144 0.000521 0.000046
   0.060330 0.054225 0.040395 0.019749 0.006165 0.001354 0.000317 0.000357 0.001365 0.004214 0.007617 0.008879 0.009018 0.010908 0.019795 0.041238 0.066414 0.089838 0.106415 0.099418 0.070463 0.037795 0.013335 0.002937 0.003289 0.037965 0.204609 0.340192 0.382046 0.520370 0.741155 0.697601 0.121006 0.006122 0.002426 0.007370 0.002807 0.004205 0.000631 0.000034
   0.186115 0.155829 0.068845 0.011900 0.001211 0.000236 0.000514 0.000827 0.001904 0.004031 0.006333 0.009018 0.018245 0.057911 0.163543 0.297197 0.385003 0.394097 0.344721 0.220717 0.092915 0.025896 0.004838 0.002264 0.019268 0.113749 0.268249 0.331744 0.433826 0.652766 0.767975 0.283971 0.030131 0.002208 0.010408 0.003580 0.005971 0.006301 0.000917 0.000098
   0.316869 0.272286 0.042301 0.003927 0.014981 0.006395 0.016006 0.004995 0.002595 0.002857 0.004245 0.010908 0.057911 0.280824 0.657848 0.750307 0.716593 0.649718 0.475915 0.222213 0.066154 0.013571 0.003300 0.009772 0.055441 0.167040 0.246202 0.312543 0.424628 0.507319 0.272692 0.047314 0.003489 0.003310 0.003121 0.002286 0.006101 0.017439 0.003025 0.000421
   0.097174 0.044784 0.013422 0.017253 0.115231 0.072687 0.109230 0.020778 0.003041 0.001652 0.002944 0.019795 0.163543 0.657848 0.854223 0.830574 0.771387 0.629587 0.362773 0.134094 0.034677 0.008299 0.007930 0.031227 0.098018 0.169805 0.215256 0.256266 0.260491 0.144317 0.036459 0.010610 0.012852 0.013985 0.004389 0.005345 0.022488 0.110056 0.018228 0.001594
   0.008763 0.010156 0.064962 0.032746 0.121746 0.255546 0.099491 0.017983 0.002735 0.000910 0.003022 0.041238 0.297197 0.750306 0.830574 0.791392 0.677733 0.447760 0.203274 0.067107 0.019858 0.011359 0.022384 0.057756 0.108335 0.144054 0.159661 0.137919 0.069048 0.018248 0.013975 0.062039 0.069433 0.016333 0.012628 0.021766 0.072757 0.299004 0.051015 0.004632
   0.000293 0.007053 0.057084 0.141584 0.513143 0.211796 0.055305 0.011390 0.001720 0.000588 0.004902 0.066414 0.385002 0.716588 0.771388 0.677733 0.474578 0.246049 0.099188 0.038117 0.021988 0.023638 0.034300 0.054239 0.079487 0.095159 0.078792 0.036760 0.009886 0.012276 0.058508 0.084751 0.037220 0.032227 0.049631 0.090806 0.225858 0.441832 0.083597 0.010989
   0.000752 0.027021 0.209181 0.302340 0.190602 0.072000 0.022011 0.004780 0.000776 0.000741 0.009255 0.089838 0.394092 0.649727 0.629596 0.447761 0.246049 0.113058 0.054388 0.039234 0.035327 0.026964 0.022926 0.029761 0.042866 0.041491 0.020807 0.006746 0.015039 0.077952 0.123216 0.083002 0.083713 0.112670 0.170801 0.327876 0.653654 0.395878 0.097962 0.021697
   0.001165 0.012061 0.068990 0.093789 0.050547 0.020024 0.006282 0.001613 0.000746 0.002291 0.017256 0.106415 0.344721 0.475921 0.362775 0.203274 0.099188 0.054388 0.049076 0.050157 0.031323 0.014144 0.008831 0.011641 0.015183 0.009984 0.005982 0.020850 0.119573 0.296879 0.219021 0.222879 0.273187 0.343720 0.488645 0.751844 0.819022 0.431865 0.133375 0.030815
   0.001353 0.007190 0.025316 0.025305 0.012159 0.004775 0.002614 0.003123 0.005832 0.010345 0.029970 0.099418 0.220717 0.222213 0.134094 0.067107 0.038117 0.039234 0.050157 0.035855 0.015500 0.005021 0.002311 0.003488 0.006210 0.011456 0.036239 0.161965 0.492059 0.522769 0.518335 0.610192 0.693381 0.784054 0.890469 0.884419 0.739695 0.464586 0.150592 0.031892
   0.001375 0.004862 0.009642 0.005623 0.003554 0.009977 0.041469 0.098693 0.078156 0.042174 0.041923 0.070463 0.092915 0.066154 0.034677 0.019858 0.021988 0.035327 0.031323 0.015500 0.006840 0.002057 0.001450 0.009807 0.049669 0.143650 0.236557 0.584056 0.889193 0.901324 0.920113 0.928522 0.918614 0.879150 0.800091 0.712385 0.634372 0.429182 0.138475 0.034674
   0.001305 0.002517 0.002401 0.005354 0.015120 0.066656 0.293278 0.684645 0.437095 0.111484 0.045995 0.037795 0.025896 0.013571 0.008299 0.011359 0.023637 0.026964 0.014144 0.005021 0.002057 0.004236 0.007094 0.057894 0.243859 0.728578 0.707254 0.817211 0.889497 0.864987 0.821549 0.776993 0.722838 0.650440 0.580979 0.549924 0.523927 0.349631 0.125605 0.065260
   0.001552 0.000905 0.004833 0.033771 0.064284 0.105157 0.232773 0.460402 0.540596 0.146802 0.037966 0.013335 0.004838 0.003300 0.007930 0.022384 0.034299 0.022925 0.008831 0.002311 0.001450 0.007094 0.027491 0.137720 0.439203 0.788728 0.756121 0.763000 0.752850 0.708715 0.646817 0.577263 0.509288 0.454640 0.429968 0.441048 0.428757 0.287535 0.127428 0.116307
   0.002501 0.001182 0.010625 0.052386 0.103497 0.143060 0.247343 0.488458 0.506588 0.124639 0.018212 0.002937 0.002264 0.009772 0.031227 0.057756 0.054239 0.029761 0.011641 0.003488 0.009807 0.057894 0.137720 0.362768 0.768542 0.742648 0.711895 0.697007 0.656092 0.580095 0.481228 0.392407 0.338214 0.322106 0.341035 0.378282 0.369344 0.255685 0.125481 0.075415
   0.000981 0.001510 0.009189 0.050511 0.109485 0.163895 0.295939 0.610216 0.320402 0.051804 0.004279 0.003289 0.019268 0.055441 0.098018 0.108335 0.079487 0.042866 0.015183 0.006210 0.049669 0.243859 0.439204 0.768543 0.743540 0.701161 0.682851 0.641849 0.550642 0.416781 0.293697 0.225578 0.215146 0.247600 0.305333 0.357473 0.346185 0.245540 0.126346 0.044061
   0.000305 0.001979 0.010390 0.049719 0.109606 0.199267 0.420484 0.604229 0.120720 0.008983 0.005183 0.037965 0.113749 0.167040 0.169805 0.144054 0.095159 0.041491 0.009984 0.011456 0.143650 0.728578 0.788728 0.742648 0.701161 0.681677 0.642537 0.544142 0.385681 0.232812 0.143037 0.122079 0.159057 0.235280 0.319226 0.371961 0.352683 0.255838 0.136960 0.037607
   0.000484 0.004567 0.017764 0.065661 0.150867 0.333237 0.637635 0.170961 0.016374 0.005713 0.051257 0.204608 0.268249 0.246202 0.215256 0.159661 0.078792 0.020807 0.005982 0.036239 0.236557 0.707254 0.756121 0.711895 0.682851 0.642537 0.546197 0.385811 0.221419 0.112656 0.072311 0.093369 0.173861 0.283563 0.374126 0.414925 0.389130 0.290584 0.142861 0.030757
   0.006896 0.036014 0.059581 0.188826 0.261871 0.393673 0.142445 0.017326 0.004342 0.044487 0.225462 0.340191 0.331743 0.312543 0.256266 0.137919 0.036760 0.006746 0.020850 0.161965 0.584056 0.817211 0.763000 0.697007 0.641849 0.544142 0.385811 0.228003 0.114599 0.060246 0.063348 0.131016 0.255982 0.379263 0.457011 0.486987 0.466143 0.339598 0.097694 0.013421
   0.039264 0.159232 0.145586 0.592338 0.171304 0.066198 0.010849 0.002482 0.025552 0.156126 0.319527 0.382046 0.433825 0.424628 0.260491 0.069048 0.009886 0.015039 0.119573 0.492059 0.889192 0.889497 0.752850 0.656092 0.550641 0.385681 0.221419 0.114599 0.060665 0.056123 0.110803 0.236212 0.386475 0.496097 0.558712 0.597287 0.584446 0.349227 0.052461 0.003317
   0.010948 0.045940 0.070144 0.103702 0.026801 0.004085 0.001366 0.010646 0.073729 0.215751 0.350328 0.520367 0.652765 0.507319 0.144317 0.018248 0.012276 0.077952 0.296879 0.522769 0.901324 0.864987 0.708715 0.580095 0.416781 0.232812 0.112656 0.060246 0.056123 0.105877 0.225792 0.388309 0.524926 0.612462 0.678730 0.740713 0.671937 0.202052 0.019827 0.001722
   0.010915 0.024085 0.025467 0.011390 0.003119 0.001217 0.004397 0.026751 0.098609 0.229528 0.476277 0.741142 0.767972 0.272692 0.036459 0.013975 0.058507 0.123216 0.219021 0.518335 0.920113 0.821549 0.646817 0.481228 0.293697 0.143037 0.072311 0.063348 0.110803 0.225792 0.387563 0.537533 0.644458 0.727541 0.814838 0.854915 0.584099 0.093351 0.005631 0.004592
   0.020719 0.027124 0.016323 0.005502 0.002092 0.003157 0.010664 0.034066 0.093947 0.254816 0.586016 0.697600 0.283970 0.047314 0.010610 0.062037 0.084740 0.083000 0.222879 0.610192 0.928522 0.776992 0.577263 0.392407 0.225578 0.122079 0.093369 0.131016 0.236212 0.388309 0.537533 0.654514 0.750826 0.849778 0.929537 0.843012 0.275924 0.030410 0.004682 0.016786
   0.026454 0.026883 0.012564 0.004712 0.003952 0.007180 0.013652 0.028151 0.068157 0.157954 0.220570 0.121007 0.030131 0.003489 0.012852 0.069432 0.037219 0.083713 0.273187 0.693381 0.918614 0.722837 0.509288 0.338214 0.215146 0.159057 0.173861 0.255982 0.386475 0.524926 0.644458 0.750826 0.860736 0.951398 0.938136 0.604479 0.107165 0.008655 0.010721 0.048422
   0.018476 0.017490 0.008775 0.005342 0.006892 0.009093 0.010152 0.013995 0.022868 0.029853 0.024194 0.006122 0.002208 0.003310 0.013985 0.016333 0.032227 0.112670 0.343720 0.784054 0.879150 0.650440 0.454640 0.322106 0.247600 0.235280 0.283563 0.379263 0.496097 0.612462 0.727541 0.849778 0.951398 0.959906 0.779912 0.232370 0.028931 0.004881 0.020945 0.086991
   0.006907 0.006917 0.004832 0.005175 0.007346 0.006063 0.003978 0.003240 0.003107 0.002105 0.000778 0.002426 0.010408 0.003121 0.004389 0.012628 0.049631 0.170801 0.488645 0.890469 0.800091 0.580979 0.429968 0.341035 0.305333 0.319226 0.374126 0.457011 0.558712 0.678730 0.814838 0.929537 0.938136 0.779912 0.300812 0.055192 0.007318 0.004802 0.023000 0.081051
   0.001783 0.001782 0.001764 0.002879 0.004009 0.002261 0.000922 0.000404 0.000201 0.000133 0.001142 0.007370 0.003580 0.002286 0.005345 0.021766 0.090806 0.327876 0.751844 0.884419 0.712385 0.549924 0.441048 0.378282 0.357473 0.371961 0.414925 0.486987 0.597287 0.740713 0.854915 0.843012 0.604479 0.232370 0.055192 0.010089 0.003083 0.003842 0.013195 0.039053
   0.000911 0.000558 0.000460 0.000912 0.001472 0.000750 0.000240 0.000081 0.000120 0.000666 0.001630 0.002807 0.005971 0.006101 0.022488 0.072757 0.225858 0.653654 0.819022 0.739695 0.634372 0.523927 0.428757 0.369345 0.346185 0.352683 0.389130 0.466143 0.584446 0.671937 0.584099 0.275925 0.107165 0.028931 0.007318 0.003083 0.002122 0.002252 0.004616 0.010622
   0.003714 0.000836 0.000150 0.000288 0.000707 0.000459 0.000240 0.000164 0.000397 0.002068 0.003144 0.004205 0.006301 0.017439 0.110056 0.299006 0.441832 0.395878 0.431865 0.464586 0.429182 0.349631 0.287535 0.255685 0.245540 0.255838 0.290584 0.339598 0.349227 0.202052 0.093351 0.030410 0.008655 0.004881 0.004802 0.003842 0.002252 0.001325 0.001400 0.002350
   0.079753 0.010288 0.000248 0.000884 0.001075 0.000744 0.000529 0.000310 0.000235 0.000403 0.000521 0.000631 0.000917 0.003025 0.018228 0.051016 0.083597 0.097962 0.133375 0.150592 0.138475 0.125605 0.127427 0.125478 0.126345 0.136960 0.142861 0.097694 0.052461 0.019827 0.005631 0.004682 0.010721 0.020945 0.023000 0.013195 0.004616 0.001400 0.000777 0.000880
   0.557440 0.068100 0.001118 0.005639 0.002575 0.001244 0.000856 0.000422 0.000156 0.000168 0.000046 0.000034 0.000098 0.000421 0.001594 0.004632 0.010989 0.021697 0.030815 0.031892 0.034674 0.065260 0.116304 0.075395 0.044058 0.037607 0.030757 0.013421 0.003317 0.001722 0.004592 0.016786 0.048422 0.086991 0.081051 0.039053 0.010622 0.002350 0.000880 0.000606

   0.003086 0.003540 0.008200 0.019056 0.038133 0.085181 0.157814 0.023464 0.000596 0.001277 0.011874 0.054224 0.155822 0.272281 0.044784 0.010157 0.007053 0.027022 0.012061 0.007190 0.004862 0.002517 0.000905 0.001182 0.001510 0.001979 0.004567 0.036013 0.159232 0.045941 0.024085 0.027124 0.026883 0.017490 0.006917 0.001782 0.000558 0.000836 0.010288 0.068100
   0.003540 0.005806 0.015712 0.037318 0.075471 0.158314 0.442825 0.059195 0.000618 0.003585 0.017048 0.046586 0.098189 0.093619 0.029048 0.122712 0.043684 0.158136 0.053641 0.019969 0.008560 0.003265 0.010902 0.018776 0.021440 0.025951 0.048566 0.158231 0.166922 0.051185 0.025436 0.022089 0.019033 0.013330 0.006720 0.002228 0.000581 0.000265 0.001452 0.009013
   0.008200 0.015712 0.045535 0.114425 0.187978 0.217870 0.348175 0.044997 0.005114 0.014498 0.026368 0.031122 0.026564 0.010960 0.064090 0.464625 0.182847 0.582990 0.158629 0.033558 0.007412 0.015966 0.105631 0.146060 0.133025 0.137195 0.190709 0.388367 0.214301 0.054675 0.017364 0.010018 0.008327 0.008377 0.007423 0.003948 0.001247 0.000431 0.001315 0.007720
   0.019056 0.037318 0.114425 0.248262 0.172098 0.058195 0.047759 0.012284 0.030508 0.032912 0.026706 0.013420 0.003752 0.001200 0.015665 0.106456 0.264375 0.337962 0.095131 0.018054 0.007530 0.056213 0.315595 0.474070 0.459464 0.438111 0.504153 0.694315 0.250906 0.039159 0.006787 0.003763 0.005803 0.010653 0.012595 0.007360 0.002783 0.001422 0.004074 0.020815
   0.038133 0.075472 0.187980 0.172098 0.047832 0.008221 0.005615 0.027285 0.040045 0.032582 0.015320 0.003747 0.000548 0.005759 0.054666 0.199892 0.494519 0.163660 0.034577 0.008648 0.016858 0.113344 0.499018 0.793563 0.804769 0.733862 0.748200 0.553148 0.119608 0.012264 0.002077 0.003313 0.009354 0.016665 0.014928 0.006836 0.002860 0.002092 0.003508 0.007256
   0.085177 0.158317 0.217881 0.058197 0.008221 0.003353 0.013674 0.030896 0.042805 0.018869 0.005583 0.000939 0.000666 0.020867 0.194744 0.522302 0.208660 0.049916 0.011882 0.008028 0.036124 0.180096 0.540474 0.821602 0.872517 0.839005 0.778404 0.292173 0.037160 0.002355 0.002009 0.006998 0.014920 0.016528 0.008706 0.003021 0.001501 0.001940 0.003587 0.004647
   0.157819 0.442826 0.348177 0.047759 0.005615 0.013673 0.022793 0.024379 0.017892 0.006884 0.001854 0.000502 0.001071 0.013249 0.077886 0.115607 0.043338 0.012469 0.004965 0.011510 0.066147 0.290589 0.645939 0.871306 0.893976 0.836567 0.484312 0.082184 0.005355 0.002084 0.007687 0.016634 0.019671 0.012153 0.003705 0.000966 0.001059 0.002798 0.003951 0.003704
   0.023465 0.059195 0.044997 0.012284 0.027285 0.030895 0.024378 0.016949 0.006951 0.002722 0.001304 0.000988 0.001428 0.004388 0.012666 0.012251 0.006491 0.002745 0.003395 0.018203 0.110566 0.437396 0.750463 0.896746 0.860696 0.535759 0.113107 0.009531 0.003731 0.015125 0.032950 0.039976 0.029050 0.009703 0.001636 0.000683 0.002791 0.007982 0.007279 0.002839
   0.000596 0.000618 0.005114 0.030508 0.040045 0.042805 0.017891 0.006951 0.003125 0.002397 0.002766 0.002711 0.002283 0.002090 0.001962 0.001513 0.000920 0.000976 0.004311 0.026529 0.126100 0.378711 0.622499 0.692148 0.432922 0.105171 0.010652 0.006920 0.032861 0.079983 0.108245 0.107554 0.050822 0.009174 0.001000 0.001908 0.005768 0.016049 0.025668 0.011673
   0.001277 0.003584 0.014498 0.032912 0.032581 0.018869 0.006884 0.002722 0.002397 0.004261 0.006408 0.005553 0.003478 0.001887 0.000992 0.000653 0.000809 0.002076 0.007662 0.027844 0.079436 0.171198 0.267535 0.201946 0.063785 0.008197 0.010776 0.057056 0.154448 0.226681 0.298348 0.321460 0.080498 0.007729 0.000768 0.001653 0.006684 0.019060 0.016053 0.051374
   0.011873 0.017045 0.026369 0.026706 0.015320 0.005583 0.001854 0.001304 0.002766 0.006408 0.008577 0.006845 0.004692 0.003458 0.003467 0.005043 0.008127 0.012807 0.020507 0.031197 0.042082 0.049731 0.045713 0.020846 0.004449 0.014724 0.078860 0.217850 0.315222 0.456545 0.656336 0.651664 0.101595 0.004443 0.002280 0.009208 0.013153 0.024731 0.006757 0.007552
   0.054224 0.046585 0.031121 0.013419 0.003747 0.000939 0.000502 0.000988 0.002711 0.005553 0.006845 0.006849 0.008893 0.017234 0.036829 0.059568 0.072823 0.074513 0.065321 0.048902 0.030423 0.014809 0.005091 0.003357 0.018794 0.092858 0.240681 0.327027 0.450508 0.701219 0.613002 0.290773 0.043068 0.006589 0.018180 0.054663 0.017833 0.031593 0.006227 0.000634
   0.155829 0.098191 0.026563 0.003752 0.000548 0.000666 0.001071 0.001428 0.002283 0.003478 0.004692 0.008893 0.031205 0.113063 0.244777 0.329209 0.313144 0.242844 0.151966 0.072761 0.025490 0.006439 0.004105 0.023344 0.090941 0.218400 0.287551 0.350164 0.520100 0.763401 0.686389 0.123562 0.062076 0.019988 0.076852 0.022957 0.015707 0.040794 0.008862 0.002575
   0.272286 0.093619 0.010960 0.001200 0.005759 0.020867 0.013249 0.004388 0.002090 0.001887 0.003458 0.017234 0.113063 0.423030 0.637719 0.620516 0.523323 0.362610 0.182242 0.066246 0.018221 0.007857 0.024534 0.086136 0.178882 0.241542 0.264445 0.309863 0.401623 0.367018 0.133152 0.017575 0.012408 0.014807 0.018667 0.015274 0.023814 0.044318 0.018045 0.010888
   0.044784 0.029047 0.064086 0.015665 0.054667 0.194744 0.077886 0.012666 0.001962 0.000992 0.003467 0.036829 0.244777 0.637719 0.718352 0.655409 0.516528 0.307631 0.133733 0.045826 0.020545 0.035362 0.093217 0.158863 0.217135 0.221621 0.208998 0.187900 0.124072 0.054523 0.015291 0.048607 0.028397 0.018409 0.026975 0.043531 0.066579 0.122473 0.060902 0.016835
   0.010156 0.122701 0.464599 0.106453 0.199892 0.522302 0.115606 0.012251 0.001513 0.000653 0.005043 0.059568 0.329209 0.620516 0.655409 0.557943 0.377895 0.196622 0.084393 0.046025 0.062590 0.113812 0.158690 0.196104 0.194741 0.164263 0.115534 0.057046 0.019034 0.010377 0.084307 0.345218 0.083827 0.056261 0.090738 0.134375 0.212317 0.402931 0.163015 0.040863
   0.007053 0.043682 0.182843 0.264375 0.494519 0.208660 0.043338 0.006491 0.000920 0.000809 0.008127 0.072823 0.313144 0.523323 0.516528 0.377895 0.221664 0.113737 0.076323 0.105110 0.150435 0.176053 0.170699 0.152136 0.123569 0.079729 0.034533 0.011784 0.014066 0.082151 0.308713 0.164780 0.123314 0.170911 0.243468 0.345262 0.526665 0.756077 0.279207 0.080403
   0.027021 0.158136 0.582991 0.337963 0.163661 0.049916 0.012469 0.002745 0.000976 0.002076 0.012807 0.074513 0.242844 0.362614 0.307632 0.196622 0.113737 0.090592 0.139428 0.200700 0.220588 0.170767 0.115279 0.077416 0.047709 0.021711 0.013876 0.029556 0.115683 0.345438 0.282240 0.260121 0.320989 0.403078 0.513418 0.675486 0.859246 0.818406 0.385135 0.124193
   0.012061 0.053642 0.158629 0.095131 0.034577 0.011882 0.004965 0.003394 0.004311 0.007662 0.020507 0.065321 0.151966 0.182243 0.133733 0.084393 0.076323 0.139428 0.227961 0.269938 0.203467 0.115044 0.049011 0.022994 0.016561 0.023154 0.070471 0.179776 0.464499 0.582089 0.536520 0.587772 0.656596 0.730401 0.828993 0.928208 0.952438 0.831753 0.476338 0.155432
   0.007190 0.019969 0.033558 0.018054 0.008648 0.008028 0.011510 0.018203 0.026529 0.027844 0.031197 0.048902 0.072761 0.066246 0.045826 0.046025 0.105110 0.200700 0.269938 0.228044 0.145910 0.051366 0.020241 0.019956 0.081128 0.151524 0.258579 0.572816 0.856719 0.862335 0.864780 0.896898 0.923239 0.946512 0.959813 0.943299 0.909103 0.809000 0.480833 0.177537
   0.004862 0.008560 0.007412 0.007530 0.016858 0.036124 0.066147 0.110569 0.126117 0.079438 0.042082 0.030423 0.025490 0.018221 0.020545 0.062590 0.150435 0.220588 0.203467 0.145910 0.071005 0.029681 0.069476 0.104340 0.329162 0.535844 0.685142 0.858733 0.964568 0.971220 0.969881 0.964918 0.950881 0.920385 0.876572 0.846379 0.833898 0.733336 0.444322 0.240974
   0.002517 0.003265 0.015966 0.056212 0.113344 0.180096 0.290587 0.437413 0.378841 0.171215 0.049731 0.014809 0.006439 0.007857 0.035362 0.113811 0.176052 0.170767 0.115044 0.051366 0.029681 0.065356 0.086593 0.309446 0.776470 0.855581 0.860698 0.906750 0.933501 0.927457 0.906712 0.877056 0.836002 0.786629 0.750957 0.751293 0.751007 0.643968 0.443171 0.455145
   0.000905 0.010902 0.105630 0.315588 0.499016 0.540474 0.645941 0.750465 0.622522 0.267538 0.045713 0.005091 0.004105 0.024534 0.093217 0.158690 0.170699 0.115279 0.049011 0.020241 0.069476 0.086593 0.264251 0.716271 0.866985 0.880621 0.874253 0.884523 0.879735 0.850152 0.800434 0.740714 0.684781 0.649004 0.650090 0.681151 0.681987 0.588039 0.479540 0.662333
   0.001182 0.018776 0.146060 0.474069 0.793561 0.821605 0.871307 0.896746 0.692149 0.201947 0.020846 0.003357 0.023344 0.086136 0.158863 0.196104 0.152136 0.077416 0.022994 0.019956 0.104340 0.309446 0.716271 0.857788 0.884303 0.868336 0.865261 0.853971 0.808648 0.723339 0.621816 0.545618 0.517754 0.536128 0.588214 0.642089 0.644794 0.576493 0.473730 0.275634
   0.001510 0.021440 0.133025 0.459464 0.804771 0.872513 0.893975 0.860694 0.432921 0.063785 0.004449 0.018794 0.090941 0.178882 0.217135 0.194741 0.123569 0.047708 0.016561 0.081128 0.329162 0.776470 0.866985 0.884303 0.868756 0.861522 0.844618 0.777938 0.637824 0.464991 0.346394 0.324207 0.381542 0.477593 0.573429 0.636401 0.643199 0.603020 0.511930 0.114640
   0.001979 0.025951 0.137196 0.438111 0.733855 0.838966 0.836560 0.535757 0.105170 0.008197 0.014724 0.092858 0.218400 0.241542 0.221621 0.164263 0.079729 0.021711 0.023154 0.151524 0.535844 0.855581 0.880621 0.868336 0.861522 0.842943 0.762799 0.573510 0.329553 0.173688 0.133828 0.197853 0.340074 0.492914 0.602310 0.659760 0.675163 0.668775 0.584154 0.090647
   0.004567 0.048567 0.190709 0.504152 0.748193 0.778402 0.484312 0.113107 0.010652 0.010776 0.078860 0.240681 0.287551 0.264445 0.208998 0.115535 0.034533 0.013876 0.070471 0.258579 0.685142 0.860698 0.874253 0.865261 0.844618 0.762799 0.554822 0.275246 0.104083 0.049684 0.077315 0.207637 0.406007 0.567996 0.659177 0.707387 0.743458 0.769292 0.628895 0.098091
   0.036014 0.158241 0.388368 0.694315 0.553149 0.292174 0.082184 0.009531 0.006920 0.057056 0.217849 0.327027 0.350164 0.309863 0.187900 0.057046 0.011784 0.029556 0.179776 0.572816 0.858733 0.906750 0.884523 0.853971 0.777938 0.573510 0.275246 0.090966 0.031534 0.038304 0.131969 0.329191 0.539171 0.665229 0.729562 0.779655 0.840458 0.820262 0.378713 0.050449
   0.159232 0.166918 0.214300 0.250906 0.119608 0.037160 0.005355 0.003731 0.032860 0.154448 0.315222 0.450507 0.520100 0.401623 0.124072 0.019034 0.014066 0.115683 0.464498 0.856718 0.964568 0.933501 0.879735 0.808648 0.637824 0.329553 0.104083 0.031534 0.031784 0.106565 0.282409 0.513400 0.674797 0.756177 0.808398 0.869038 0.909924 0.765781 0.132259 0.008948
   0.045940 0.051184 0.054675 0.039158 0.012264 0.002355 0.002084 0.015125 0.079984 0.226683 0.456544 0.701210 0.763398 0.367019 0.054523 0.010377 0.082151 0.345438 0.582089 0.862335 0.971220 0.927457 0.850152 0.723339 0.464991 0.173688 0.049684 0.038304 0.106565 0.267980 0.495762 0.678095 0.778428 0.835683 0.890422 0.938540 0.866675 0.337379 0.037397 0.005209
   0.024085 0.025436 0.017364 0.006787 0.002077 0.002009 0.007687 0.032950 0.108244 0.298346 0.656335 0.612998 0.686379 0.133151 0.015291 0.084308 0.308713 0.282240 0.536520 0.864780 0.969881 0.906712 0.800434 0.621816 0.346394 0.133828 0.077315 0.131968 0.282409 0.495762 0.677613 0.789160 0.854508 0.907751 0.951259 0.941968 0.772351 0.132012 0.011137 0.017170
   0.027124 0.022089 0.010018 0.003763 0.003313 0.006998 0.016633 0.039976 0.107553 0.321450 0.651664 0.290783 0.123562 0.017575 0.048607 0.345222 0.164780 0.260121 0.587772 0.896898 0.964918 0.877056 0.740714 0.545618 0.324207 0.197853 0.207637 0.329191 0.513400 0.678095 0.789160 0.860990 0.917609 0.957822 0.953652 0.881913 0.342804 0.043609 0.015115 0.055717
   0.026883 0.019033 0.008327 0.005803 0.009354 0.014920 0.019671 0.029050 0.050821 0.080498 0.101595 0.043070 0.062077 0.012409 0.028397 0.083827 0.123314 0.320989 0.656596 0.923239 0.950881 0.836002 0.684781 0.517754 0.381542 0.340074 0.406007 0.539171 0.674797 0.778428 0.854508 0.917609 0.959897 0.950299 0.920172 0.699652 0.143930 0.018248 0.034739 0.130689
   0.017490 0.013330 0.008377 0.010653 0.016665 0.016528 0.012153 0.009703 0.009174 0.007729 0.004443 0.006589 0.019988 0.014807 0.018409 0.056261 0.170911 0.403078 0.730401 0.946512 0.920385 0.786629 0.649004 0.536128 0.477593 0.492914 0.567996 0.665230 0.756177 0.835683 0.907751 0.957822 0.950299 0.926312 0.836444 0.326970 0.056303 0.016849 0.059550 0.191065
   0.006917 0.006720 0.007423 0.012595 0.014928 0.008706 0.003705 0.001636 0.001000 0.000768 0.002280 0.018180 0.076852 0.018667 0.026975 0.090738 0.243468 0.513418 0.828993 0.959813 0.876572 0.750957 0.650090 0.588214 0.573429 0.602310 0.659177 0.729562 0.808398 0.890422 0.951259 0.953652 0.920172 0.836444 0.425346 0.121029 0.027229 0.018412 0.059174 0.161101
   0.001782 0.002228 0.003948 0.007360 0.006836 0.003021 0.000966 0.000683 0.001908 0.001653 0.009208 0.054662 0.022957 0.015274 0.043531 0.134374 0.345262 0.675486 0.928208 0.943299 0.846379 0.751293 0.681151 0.642089 0.636401 0.659760 0.707387 0.779655 0.869038 0.938540 0.941968 0.881913 0.699652 0.326970 0.121029 0.042244 0.017445 0.014978 0.033829 0.078749
   0.000558 0.000581 0.001247 0.002783 0.002860 0.001501 0.001059 0.002791 0.005768 0.006684 0.013153 0.017833 0.015707 0.023814 0.066579 0.212318 0.526665 0.859245 0.952438 0.909103 0.833898 0.751007 0.681987 0.644794 0.643199 0.675163 0.743458 0.840458 0.909924 0.866675 0.772351 0.342805 0.143930 0.056303 0.027229 0.017445 0.011356 0.009248 0.014004 0.026226
   0.000836 0.000265 0.000431 0.001422 0.002092 0.001940 0.002798 0.007982 0.016049 0.019060 0.024731 0.031593 0.040794 0.044318 0.122475 0.402939 0.756077 0.818406 0.831753 0.809000 0.733336 0.643968 0.588039 0.576493 0.603020 0.668775 0.769292 0.820262 0.765781 0.337379 0.132012 0.043609 0.018248 0.016849 0.018412 0.014978 0.009248 0.006085 0.006665 0.010136
   0.010288 0.001452 0.001315 0.004073 0.003508 0.003587 0.003951 0.007279 0.025668 0.016053 0.006757 0.006227 0.008862 0.018045 0.060902 0.163014 0.279206 0.385135 0.476338 0.480833 0.444322 0.443171 0.479542 0.473731 0.511930 0.584154 0.628895 0.378713 0.132259 0.037397 0.011137 0.015115 0.034739 0.059550 0.059174 0.033829 0.014004 0.006665 0.005357 0.005707
   0.068100 0.009013 0.007719 0.020811 0.007256 0.004647 0.003704 0.002839 0.011673 0.051374 0.007552 0.000634 0.002575 0.010888 0.016835 0.040863 0.080402 0.124194 0.155432 0.177537 0.240974 0.455146 0.662342 0.275642 0.114641 0.090647 0.098091 0.050449 0.008948 0.005209 0.017170 0.055717 0.130689 0.191065 0.161101 0.078749 0.026226 0.010136 0.005707 0.003519

   0.003756 0.008200 0.025843 0.069038 0.169904 0.320324 0.508199 0.065150 0.000512 0.002966 0.015510 0.040395 0.068849 0.042301 0.013422 0.064968 0.057085 0.209187 0.068988 0.025315 0.009642 0.002401 0.004833 0.010625 0.009189 0.010390 0.017764 0.059581 0.145586 0.070144 0.025467 0.016323 0.012564 0.008775 0.004832 0.001764 0.000460 0.000150 0.000248 0.001118