CRYSTAL
PRIMVEC
 2.73823450000000 2.73823450000000 0.00000000000000
 0.00000000000000 2.73823450000000 2.73823450000000
 2.73823450000000 0.00000000000000 2.73823450000000
PRIMCOORD
 2 1
 14     0.00000000000000     0.00000000000000     0.00000000000000
 14     1.36911720000000     1.36911720000000     1.36911720000000
BEGIN_BLOCK_DATAGRID_3D
 data
 BEGIN_DATAGRID_3Dgrid#1
  40 40 40
  -5.750292 -5.750292 -5.750292
  5.339557 5.339557 0.000000
  0.000000 5.339557 5.339557
  5.339557 0.000000 5.339557
   0.005567 0.002822 0.002744 0.005523 0.010490 0.015920 0.019667 0.006995 0.000184 0.000179 0.004636 0.052352 0.186112 0.366111 0.091185 0.001258 0.000066 0.000091 0.000375 0.000555 0.000624 0.000867 0.001627 0.003593 0.000874 0.000080 0.000012 0.000009 0.000068 0.000919 0.006489 0.018759 0.027539 0.018814 0.005923 0.001355 0.000738 0.002595 0.020678 0.779684
   0.002822 0.002565 0.005621 0.014013 0.025492 0.040745 0.068499 0.004746 0.000065 0.000293 0.007570 0.048592 0.157114 0.398649 0.003917 0.000035 0.000043 0.000921 0.003031 0.003666 0.004021 0.003007 0.000583 0.000038 0.000005 0.000052 0.000222 0.002118 0.246126 0.024722 0.024616 0.030911 0.031587 0.019315 0.006503 0.001317 0.000431 0.000490 0.001008 0.002282
   0.002744 0.005621 0.020442 0.050947 0.101569 0.379951 0.774453 0.000544 0.000039 0.000817 0.012484 0.041081 0.082938 0.006715 0.000029 0.000027 0.026252 0.187109 0.043833 0.025807 0.010825 0.001155 0.000092 0.000033 0.000010 0.000053 0.000291 0.001821 0.039698 0.076914 0.023781 0.016727 0.011950 0.008107 0.004216 0.001219 0.000257 0.000066 0.000015 0.000002
   0.005523 0.014013 0.050947 0.147948 0.748362 0.115753 0.080973 0.000032 0.000085 0.003758 0.018552 0.021574 0.005745 0.000055 0.000012 0.012335 0.041795 0.403075 0.073605 0.025224 0.003546 0.000444 0.002014 0.000178 0.000631 0.002083 0.005289 0.020447 0.998554 0.030363 0.008916 0.004347 0.003739 0.004380 0.004264 0.002204 0.000508 0.000098 0.000033 0.004812
   0.010490 0.025492 0.101571 0.748363 0.097466 0.031073 0.000083 0.000014 0.001346 0.020731 0.015141 0.004808 0.000171 0.000008 0.193666 0.010123 0.764581 0.134176 0.044015 0.008920 0.001288 0.002279 0.003733 0.004733 0.011652 0.020856 0.039158 0.233782 0.105692 0.008659 0.001835 0.001379 0.002846 0.005781 0.007215 0.003952 0.001271 0.000555 0.000854 0.002068
   0.015921 0.040745 0.379883 0.115760 0.031073 0.000158 0.000006 0.000616 0.208448 0.019592 0.005456 0.000551 0.000020 0.000171 0.010489 0.287149 0.178802 0.057459 0.016315 0.002878 0.001330 0.038133 0.037194 0.043354 0.060151 0.082106 0.205175 0.571084 0.015658 0.001249 0.000585 0.001821 0.006052 0.008831 0.005894 0.001768 0.000525 0.000296 0.000494 0.000937
   0.019663 0.068492 0.774579 0.080973 0.000083 0.000006 0.000479 0.020217 0.038145 0.005935 0.001186 0.000102 0.000050 0.003600 0.164163 0.082763 0.045258 0.018739 0.004351 0.001260 0.002789 0.313600 0.146625 0.133895 0.163024 0.295375 0.959127 0.030601 0.001372 0.000405 0.001651 0.008509 0.012798 0.009822 0.003450 0.000578 0.000126 0.000108 0.000323 0.000704
   0.006994 0.004746 0.000544 0.000032 0.000014 0.000616 0.020217 0.074224 0.006124 0.001753 0.000404 0.000151 0.000418 0.002992 0.008901 0.012236 0.009045 0.003284 0.000919 0.000798 0.008301 0.995956 0.356050 0.442491 0.679264 0.824284 0.040089 0.001736 0.000473 0.002535 0.020870 0.031456 0.025826 0.013636 0.002421 0.000174 0.000025 0.000042 0.000158 0.000329
   0.000184 0.000065 0.000039 0.000085 0.001346 0.208446 0.038145 0.006124 0.002057 0.000928 0.000688 0.000916 0.001700 0.002608 0.002690 0.002015 0.001036 0.000405 0.000268 0.001079 0.030092 0.482340 0.631242 0.565205 0.296432 0.032857 0.001888 0.000622 0.004676 0.065422 0.097415 0.082211 0.065083 0.022461 0.001458 0.000049 0.000008 0.000020 0.000051 0.000077
   0.000179 0.000293 0.000817 0.003758 0.020731 0.019592 0.005935 0.001753 0.000928 0.001322 0.002702 0.004042 0.004241 0.002901 0.001476 0.000681 0.000339 0.000262 0.000592 0.004667 0.032600 0.070651 0.091044 0.078181 0.019310 0.001555 0.000638 0.006912 0.160964 0.229200 0.200843 0.223576 0.182351 0.018937 0.000448 0.000017 0.000006 0.000019 0.000018 0.000015
   0.004636 0.007570 0.012484 0.018552 0.015141 0.005456 0.001186 0.000404 0.000688 0.002702 0.006574 0.008363 0.006696 0.003951 0.002151 0.001392 0.001412 0.002624 0.008167 0.023888 0.039728 0.044664 0.035712 0.011168 0.001093 0.000482 0.006947 0.251886 0.350480 0.317357 0.417714 0.645309 0.240943 0.004018 0.000095 0.000010 0.000017 0.000048 0.000012 0.000009
   0.052352 0.048592 0.041082 0.021574 0.004808 0.000551 0.000102 0.000151 0.000916 0.004042 0.008363 0.009535 0.008694 0.007891 0.008399 0.013033 0.028294 0.058896 0.090996 0.099764 0.077652 0.041574 0.010856 0.001122 0.000381 0.004650 0.217744 0.377448 0.358517 0.473915 0.802224 0.951500 0.035927 0.000458 0.000026 0.000018 0.000130 0.000123 0.000016 0.000018
   0.186112 0.157127 0.082929 0.005745 0.000171 0.000020 0.000050 0.000418 0.001700 0.004241 0.006696 0.008694 0.013340 0.027938 0.085404 0.261429 0.402948 0.424155 0.394675 0.260539 0.100589 0.022365 0.002689 0.000578 0.002528 0.088810 0.295013 0.320942 0.410459 0.649536 0.946316 0.215698 0.001731 0.000051 0.000019 0.000205 0.007250 0.000338 0.000037 0.000063
   0.366111 0.398649 0.006715 0.000055 0.000008 0.000171 0.003600 0.002992 0.002608 0.002901 0.003951 0.007891 0.027938 0.190298 0.753601 0.836775 0.772894 0.734989 0.564434 0.239130 0.058595 0.009456 0.001672 0.001925 0.026475 0.171499 0.243283 0.307938 0.435730 0.616990 0.237451 0.003874 0.000081 0.000021 0.001332 0.000899 0.002397 0.004929 0.000171 0.000267
   0.091174 0.003917 0.000029 0.000012 0.193668 0.010489 0.164162 0.008901 0.002690 0.001476 0.002151 0.008399 0.085404 0.753601 0.919782 0.853230 0.823025 0.711332 0.390626 0.123639 0.027313 0.005366 0.002635 0.011142 0.086276 0.169177 0.216389 0.274808 0.310172 0.111813 0.004254 0.000120 0.000033 0.020375 0.000496 0.001042 0.002776 0.124653 0.001318 0.001019
   0.001258 0.000035 0.000027 0.012335 0.010123 0.287146 0.082764 0.012236 0.002015 0.000681 0.001392 0.013033 0.261429 0.836775 0.853230 0.830718 0.748082 0.485385 0.195487 0.056882 0.014308 0.005419 0.008473 0.042889 0.104593 0.144306 0.173285 0.157028 0.050567 0.003338 0.000179 0.000086 0.105740 0.001380 0.002678 0.005674 0.012716 0.368228 0.006205 0.002730
   0.000066 0.000043 0.026252 0.041794 0.764581 0.178802 0.045257 0.009045 0.001036 0.000339 0.001412 0.028294 0.402948 0.772883 0.823025 0.748082 0.515884 0.242324 0.087700 0.029396 0.012844 0.011476 0.022652 0.045072 0.074058 0.102298 0.086960 0.026932 0.002709 0.000293 0.000288 0.108383 0.007490 0.010540 0.019169 0.035317 0.102777 0.521124 0.016757 0.006058
   0.000091 0.000921 0.187110 0.403076 0.134177 0.057459 0.018739 0.003284 0.000405 0.000262 0.002624 0.058896 0.424143 0.735005 0.711347 0.485385 0.242324 0.101351 0.043439 0.025813 0.021144 0.015919 0.013302 0.021660 0.043460 0.045162 0.015556 0.002457 0.000566 0.001034 0.132183 0.037767 0.040363 0.059931 0.094490 0.199109 0.776307 0.299010 0.037522 0.012059
   0.000375 0.003031 0.043833 0.073605 0.044015 0.016315 0.004351 0.000919 0.000268 0.000592 0.008167 0.090996 0.394675 0.564443 0.390626 0.195487 0.087700 0.043439 0.033664 0.033434 0.016803 0.004809 0.003394 0.009582 0.015871 0.007089 0.001971 0.001138 0.003806 0.321427 0.131010 0.134248 0.184158 0.244948 0.392771 0.800642 0.900802 0.351262 0.070405 0.016093
   0.000555 0.003666 0.025807 0.025224 0.008920 0.002878 0.001260 0.000798 0.001079 0.004667 0.023888 0.099764 0.260539 0.239130 0.123639 0.056882 0.029396 0.025813 0.033434 0.018697 0.003720 0.000524 0.000828 0.002693 0.001852 0.001155 0.002232 0.014635 0.486649 0.436058 0.428074 0.577999 0.683330 0.804863 0.977992 0.935470 0.725672 0.434593 0.085941 0.013182
   0.000624 0.004021 0.010825 0.003546 0.001288 0.001330 0.002789 0.008300 0.030082 0.032600 0.039728 0.077652 0.100589 0.058595 0.027313 0.014308 0.012844 0.021144 0.016803 0.003720 0.000439 0.000044 0.000209 0.000285 0.000726 0.007435 0.078544 0.585150 0.984293 0.947739 0.996483 0.995339 0.978763 0.924600 0.800906 0.683115 0.627357 0.408447 0.075178 0.009096
   0.000867 0.003007 0.001155 0.000444 0.002279 0.038133 0.313610 0.995940 0.483657 0.070651 0.044664 0.041573 0.022365 0.009456 0.005366 0.005419 0.011476 0.015919 0.004809 0.000524 0.000044 0.000038 0.000094 0.031876 0.092254 0.904503 0.723260 0.854424 0.908354 0.869795 0.810878 0.763214 0.706587 0.623497 0.544096 0.515657 0.514913 0.316094 0.066288 0.009990
   0.001627 0.000583 0.000092 0.002014 0.003734 0.037194 0.146625 0.356049 0.631337 0.091044 0.035712 0.010856 0.002689 0.001672 0.002635 0.008473 0.022651 0.013302 0.003394 0.000828 0.000209 0.000094 0.000128 0.003803 0.331599 0.849658 0.732724 0.747683 0.731871 0.685404 0.625782 0.554796 0.481311 0.420807 0.391835 0.407793 0.410650 0.249696 0.068521 0.038254
   0.003593 0.000038 0.000033 0.000178 0.004733 0.043353 0.133890 0.442492 0.565206 0.078181 0.011168 0.001122 0.000578 0.001925 0.011142 0.042889 0.045072 0.021660 0.009582 0.002693 0.000285 0.031876 0.003803 0.205929 0.909346 0.706707 0.688277 0.677341 0.640351 0.569564 0.466751 0.368954 0.308431 0.287265 0.302767 0.345944 0.345014 0.216438 0.071443 0.047776
   0.000874 0.000005 0.000010 0.000631 0.011653 0.060152 0.163026 0.679264 0.296432 0.019310 0.001093 0.000381 0.002528 0.026475 0.086276 0.104593 0.074058 0.043460 0.015871 0.001852 0.000726 0.092254 0.331600 0.909348 0.704864 0.674813 0.664876 0.633767 0.553024 0.414323 0.278458 0.202868 0.186171 0.211712 0.267359 0.326516 0.317984 0.201731 0.067972 0.028963
   0.000080 0.000052 0.000053 0.002083 0.020856 0.082107 0.295347 0.824252 0.032857 0.001555 0.000482 0.004650 0.088810 0.171499 0.169177 0.144306 0.102298 0.045162 0.007089 0.001155 0.007435 0.904503 0.849659 0.706707 0.674813 0.664324 0.638929 0.556446 0.394712 0.226597 0.129732 0.103157 0.128945 0.197019 0.283115 0.342043 0.319679 0.203345 0.066341 0.026932
   0.000012 0.000222 0.000291 0.005289 0.039158 0.205175 0.959120 0.040089 0.001888 0.000638 0.006947 0.217744 0.295012 0.243283 0.216389 0.173285 0.086960 0.015556 0.001971 0.002232 0.078544 0.723260 0.732724 0.688277 0.664877 0.638929 0.562337 0.403924 0.224649 0.106247 0.062208 0.071882 0.136507 0.245228 0.341674 0.383664 0.348764 0.227447 0.062933 0.016959
   0.000009 0.002118 0.001821 0.020447 0.233782 0.571087 0.030601 0.001736 0.000622 0.006912 0.251885 0.377448 0.320941 0.307939 0.274808 0.157028 0.026932 0.002457 0.001138 0.014635 0.585150 0.854423 0.747683 0.677341 0.633766 0.556446 0.403924 0.237628 0.113375 0.054043 0.048749 0.095879 0.215004 0.347004 0.426943 0.451182 0.420990 0.285200 0.041864 0.004062
   0.000068 0.246046 0.039698 0.998555 0.105692 0.015658 0.001372 0.000473 0.004676 0.160963 0.350480 0.358517 0.410459 0.435730 0.310172 0.050567 0.002709 0.000566 0.003806 0.486649 0.984291 0.908354 0.731871 0.640351 0.553022 0.394712 0.224649 0.113375 0.055599 0.044683 0.078865 0.192256 0.354680 0.469814 0.527817 0.558789 0.566883 0.313844 0.011499 0.000981
   0.000919 0.024719 0.076912 0.030363 0.008659 0.001249 0.000405 0.002535 0.065422 0.229200 0.317357 0.473915 0.649535 0.616990 0.111813 0.003338 0.000293 0.001034 0.321427 0.436058 0.947739 0.869795 0.685404 0.569564 0.414323 0.226597 0.106247 0.054043 0.044683 0.075515 0.180504 0.355369 0.501941 0.587065 0.646629 0.722229 0.731401 0.129756 0.002459 0.000968
   0.006489 0.024618 0.023781 0.008916 0.001835 0.000585 0.001651 0.020870 0.097415 0.200849 0.417714 0.802202 0.946317 0.237451 0.004254 0.000179 0.000288 0.132183 0.131010 0.428074 0.996483 0.810878 0.625782 0.466751 0.278458 0.129732 0.062208 0.048750 0.078865 0.180504 0.353700 0.515578 0.622345 0.700432 0.796128 0.896080 0.620612 0.023132 0.001217 0.002978
   0.018759 0.030911 0.016727 0.004347 0.001379 0.001821 0.008509 0.031456 0.082211 0.223580 0.645312 0.951500 0.215698 0.003874 0.000120 0.000086 0.108363 0.037767 0.134248 0.577999 0.995339 0.763211 0.554796 0.368954 0.202868 0.103157 0.071882 0.095879 0.192256 0.355369 0.515578 0.633293 0.726020 0.834477 0.951562 0.946825 0.186754 0.005502 0.001622 0.012045
   0.027539 0.031587 0.011950 0.003739 0.002846 0.006052 0.012798 0.025826 0.065083 0.182348 0.240948 0.035927 0.001731 0.000081 0.000033 0.105739 0.007490 0.040363 0.184158 0.683330 0.978763 0.706587 0.481311 0.308431 0.186171 0.128945 0.136507 0.215004 0.354680 0.501941 0.622345 0.726020 0.847159 0.972470 0.999399 0.635226 0.034316 0.002464 0.003984 0.041697
   0.018814 0.019315 0.008107 0.004380 0.005781 0.008831 0.009822 0.013636 0.022461 0.018937 0.004018 0.000458 0.000051 0.000021 0.020375 0.001380 0.010540 0.059931 0.244948 0.804863 0.924600 0.623497 0.420807 0.287265 0.211712 0.197019 0.245228 0.347004 0.469814 0.587065 0.700432 0.834477 0.972470 0.998415 0.888878 0.127963 0.008145 0.002093 0.010286 0.087708
   0.005923 0.006503 0.004216 0.004264 0.007215 0.005894 0.003450 0.002421 0.001458 0.000448 0.000095 0.000026 0.000019 0.001332 0.000496 0.002678 0.019169 0.094490 0.392771 0.977992 0.800906 0.544096 0.391835 0.302767 0.267359 0.283115 0.341674 0.426943 0.527817 0.646629 0.796128 0.951562 0.999399 0.888878 0.197146 0.019122 0.002989 0.002532 0.014409 0.082752
   0.001355 0.001317 0.001219 0.002204 0.003952 0.001768 0.000578 0.000174 0.000049 0.000017 0.000010 0.000018 0.000205 0.000899 0.001042 0.005674 0.035317 0.199109 0.800642 0.935470 0.683115 0.515657 0.407793 0.345944 0.326516 0.342043 0.383664 0.451182 0.558789 0.722229 0.896080 0.946825 0.635226 0.127963 0.019122 0.003953 0.001842 0.002510 0.008728 0.035437
   0.000738 0.000431 0.000257 0.000508 0.001271 0.000525 0.000126 0.000025 0.000008 0.000006 0.000017 0.000130 0.007250 0.002397 0.002776 0.012716 0.102777 0.776307 0.900802 0.725672 0.627357 0.514913 0.410650 0.345014 0.317984 0.319679 0.348764 0.420990 0.566882 0.731402 0.620612 0.186754 0.034316 0.008145 0.002989 0.001842 0.001515 0.001591 0.002911 0.007407
   0.002595 0.000490 0.000066 0.000098 0.000555 0.000296 0.000108 0.000042 0.000020 0.000019 0.000048 0.000123 0.000338 0.004929 0.124652 0.368228 0.521124 0.299010 0.351262 0.434593 0.408447 0.316094 0.249696 0.216438 0.201731 0.203345 0.227447 0.285200 0.313844 0.129756 0.023132 0.005502 0.002464 0.002093 0.002532 0.002510 0.001591 0.000879 0.000758 0.001254
   0.020678 0.001008 0.000015 0.000033 0.000854 0.000494 0.000323 0.000158 0.000051 0.000018 0.000012 0.000016 0.000037 0.000171 0.001318 0.006205 0.016757 0.037522 0.070405 0.085941 0.075178 0.066288 0.068521 0.071441 0.067972 0.066341 0.062933 0.041864 0.011499 0.002459 0.001217 0.001622 0.003984 0.010286 0.014409 0.008728 0.002911 0.000758 0.000383 0.000491
   0.779685 0.002282 0.000002 0.004813 0.002068 0.000937 0.000704 0.000329 0.000077 0.000015 0.000009 0.000018 0.000063 0.000267 0.001019 0.002730 0.006058 0.012059 0.016093 0.013182 0.009096 0.009990 0.038251 0.047744 0.028963 0.026932 0.016959 0.004062 0.000981 0.000968 0.002978 0.012045 0.041697 0.087707 0.082752 0.035437 0.007407 0.001254 0.000491 0.000407

   0.002822 0.002565 0.005621 0.014013 0.025492 0.040745 0.068499 0.004746 0.000065 0.000293 0.007570 0.048592 0.157114 0.398642 0.003916 0.000035 0.000043 0.000921 0.003031 0.003666 0.004021 0.003007 0.000583 0.000038 0.000005 0.000052 0.000222 0.002118 0.246046 0.024719 0.024618 0.030911 0.031587 0.019315 0.006503 0.001317 0.000431 0.000490 0.001008 0.002282
   0.002565 0.003531 0.010686 0.025091 0.043848 0.099656 0.712091 0.000465 0.000028 0.000840 0.013913 0.044001 0.116348 0.053744 0.000040 0.000010 0.002071 0.034256 0.025033 0.018876 0.010445 0.001212 0.000067 0.000067 0.010953 0.013988 0.019567 0.147889 0.161885 0.038720 0.027228 0.024172 0.019901 0.013732 0.006414 0.001633 0.000354 0.000099 0.000026 0.000004
   0.005621 0.010686 0.032599 0.074366 0.230637 0.235321 0.460194 0.000022 0.000089 0.005486 0.028223 0.034704 0.014965 0.000100 0.000005 0.922285 0.031202 0.961590 0.126893 0.035102 0.004005 0.000565 0.002875 0.069044 0.039524 0.056816 0.092237 0.405744 0.236895 0.039785 0.015707 0.008256 0.006638 0.007052 0.006244 0.002951 0.000638 0.000103 0.000017 0.000035
   0.014013 0.025091 0.074366 0.352049 0.138920 0.013417 0.000083 0.000015 0.001752 0.033082 0.031589 0.011527 0.000420 0.000007 0.004032 0.007330 0.178030 0.379682 0.071380 0.010589 0.001827 0.004091 0.316946 0.501179 0.441863 0.415739 0.474775 0.999999 0.143830 0.019993 0.004336 0.002531 0.004193 0.008745 0.012941 0.007884 0.002405 0.000948 0.001216 0.031572
   0.025492 0.043848 0.230638 0.138921 0.009377 0.000332 0.000006 0.000457 0.039833 0.038670 0.014804 0.001656 0.000045 0.000090 0.008415 0.062717 0.752722 0.109997 0.021771 0.004014 0.003632 0.037844 0.582824 0.995869 0.950876 0.803998 0.875595 0.665793 0.056672 0.004074 0.001054 0.002024 0.007522 0.018208 0.018549 0.007031 0.002760 0.001793 0.002561 0.004424
   0.040745 0.099657 0.235353 0.013417 0.000332 0.000004 0.000176 0.031582 0.035777 0.016207 0.004005 0.000331 0.000069 0.003225 0.129515 0.899656 0.129234 0.032335 0.006851 0.003298 0.011538 0.120430 0.584649 0.940624 0.979967 0.913237 0.989415 0.209990 0.007115 0.000610 0.000946 0.005281 0.015844 0.019939 0.008651 0.002349 0.001119 0.001167 0.002337 0.003554
   0.068492 0.712090 0.460178 0.000083 0.000006 0.000176 0.024990 0.026780 0.013330 0.005361 0.001192 0.000255 0.000356 0.006393 0.068422 0.064807 0.027964 0.007648 0.002722 0.004186 0.027726 0.218176 0.705694 0.990816 0.973318 0.999808 0.450357 0.013881 0.000564 0.000616 0.004748 0.016362 0.022105 0.013170 0.002669 0.000523 0.000352 0.000865 0.002213 0.002661
   0.004746 0.000465 0.000022 0.000015 0.000457 0.031582 0.026780 0.011533 0.005378 0.002155 0.000942 0.000687 0.001136 0.003446 0.007474 0.007557 0.003650 0.001434 0.001390 0.005979 0.056232 0.365913 0.839115 0.992272 0.992799 0.537253 0.018228 0.000638 0.000666 0.007414 0.029914 0.040455 0.031836 0.008233 0.000616 0.000087 0.000144 0.000839 0.001391 0.001104
   0.000065 0.000028 0.000089 0.001752 0.039833 0.035777 0.013330 0.005378 0.002578 0.001971 0.002319 0.002524 0.002292 0.001998 0.001408 0.000781 0.000417 0.000395 0.001261 0.010979 0.093656 0.346997 0.635209 0.785860 0.417281 0.014841 0.000602 0.000880 0.015196 0.075024 0.103831 0.106728 0.054233 0.003285 0.000091 0.000022 0.000201 0.001410 0.000786 0.000303
   0.000293 0.000840 0.005486 0.033082 0.038670 0.016207 0.005361 0.002155 0.001971 0.003862 0.006862 0.006094 0.003497 0.001626 0.000684 0.000344 0.000310 0.000689 0.003547 0.020699 0.067755 0.135358 0.213976 0.147556 0.007284 0.000378 0.000998 0.028020 0.156768 0.218644 0.283622 0.387381 0.047377 0.000439 0.000016 0.000035 0.003791 0.025006 0.000971 0.000093
   0.007570 0.013910 0.028223 0.031589 0.014804 0.004005 0.001192 0.000942 0.002319 0.006862 0.009969 0.007148 0.004288 0.002557 0.001701 0.001669 0.002776 0.006735 0.016543 0.029785 0.039372 0.041575 0.024831 0.002193 0.000166 0.000905 0.043814 0.238167 0.310014 0.421518 0.850516 0.999430 0.004581 0.000041 0.000015 0.000472 0.014697 0.034897 0.001268 0.000032
   0.048592 0.044001 0.034701 0.011527 0.001656 0.000331 0.000255 0.000687 0.002524 0.006094 0.007148 0.006346 0.006899 0.009035 0.014597 0.029165 0.051388 0.063486 0.059959 0.045718 0.026502 0.009116 0.001003 0.000110 0.000776 0.057002 0.283043 0.330670 0.416259 0.784908 0.646035 0.173142 0.000171 0.000012 0.000112 0.104900 0.007339 0.045951 0.000738 0.000018
   0.157127 0.116348 0.014965 0.000420 0.000045 0.000069 0.000356 0.001136 0.002292 0.003497 0.004288 0.006899 0.018083 0.066644 0.223913 0.358035 0.330120 0.248900 0.143531 0.056456 0.014796 0.002166 0.000325 0.000857 0.040942 0.263107 0.298341 0.339600 0.516698 0.999964 0.989986 0.000813 0.000013 0.000053 0.151652 0.004959 0.008982 0.063102 0.000945 0.000045
   0.398649 0.053744 0.000100 0.000007 0.000090 0.003225 0.006393 0.003446 0.001998 0.001626 0.002557 0.009035 0.066644 0.473763 0.737112 0.666161 0.572647 0.383593 0.153202 0.042219 0.008964 0.001927 0.001763 0.020379 0.190067 0.258415 0.267648 0.319183 0.502092 0.403588 0.001931 0.000020 0.000042 0.019500 0.004054 0.008184 0.015944 0.048229 0.004234 0.000283
   0.003917 0.000040 0.000005 0.004032 0.008415 0.129515 0.068422 0.007474 0.001408 0.000684 0.001701 0.014597 0.223913 0.737112 0.747420 0.696470 0.556566 0.286686 0.099224 0.028529 0.008453 0.005293 0.017831 0.129500 0.237231 0.232608 0.224283 0.212376 0.081125 0.001830 0.000037 0.000070 0.033383 0.006575 0.014210 0.028555 0.044496 0.105757 0.022360 0.001524
   0.000035 0.000010 0.922234 0.007330 0.062717 0.899657 0.064807 0.007557 0.000781 0.000344 0.001669 0.029165 0.358035 0.666161 0.696470 0.598981 0.367882 0.161486 0.059796 0.023511 0.015597 0.029181 0.108106 0.202962 0.206428 0.180565 0.122315 0.031589 0.001481 0.000085 0.000222 0.669997 0.018853 0.034047 0.066288 0.107388 0.160300 0.478722 0.066901 0.006081
   0.000043 0.002071 0.031202 0.178030 0.752722 0.129234 0.027964 0.003650 0.000417 0.000310 0.002776 0.051388 0.330120 0.572647 0.556566 0.367882 0.188119 0.085397 0.043422 0.037068 0.063766 0.126335 0.153274 0.148531 0.135136 0.081858 0.018548 0.001545 0.000257 0.000952 0.539781 0.065565 0.087497 0.143737 0.218783 0.322620 0.527889 0.995597 0.153214 0.020710
   0.000921 0.034256 0.961593 0.379682 0.109997 0.032335 0.007648 0.001434 0.000395 0.000689 0.006735 0.063486 0.248900 0.383598 0.286686 0.161486 0.085397 0.053433 0.060470 0.125192 0.186920 0.134863 0.090015 0.077358 0.046768 0.010782 0.001692 0.000851 0.004387 0.490415 0.212474 0.219949 0.300513 0.392200 0.516713 0.717168 0.945002 0.939795 0.318627 0.050105
   0.003031 0.025033 0.126893 0.071380 0.021771 0.006851 0.002722 0.001390 0.001261 0.003547 0.016543 0.059959 0.143531 0.153202 0.099224 0.059796 0.043422 0.060470 0.161758 0.256301 0.159942 0.068558 0.036624 0.018305 0.004317 0.001496 0.002614 0.019956 0.526169 0.617178 0.529050 0.619134 0.699992 0.781290 0.897355 0.989536 0.989704 0.917493 0.473537 0.070045
   0.003666 0.018876 0.035102 0.010589 0.004014 0.003298 0.004186 0.005979 0.010979 0.020699 0.029785 0.045718 0.056456 0.042219 0.028529 0.023511 0.037068 0.125192 0.256301 0.185803 0.086851 0.029192 0.006214 0.001342 0.001537 0.010711 0.101998 0.621229 0.996153 0.925049 0.942760 0.968477 0.983513 0.998035 0.991722 0.953199 0.928647 0.882687 0.476195 0.078774
   0.004021 0.010445 0.004005 0.001827 0.003632 0.011538 0.027726 0.056232 0.093655 0.067755 0.039372 0.026502 0.014796 0.008964 0.008453 0.015597 0.063766 0.186921 0.159942 0.086851 0.056213 0.006795 0.001455 0.014146 0.247430 0.567634 0.770928 0.926492 0.986710 0.992964 0.987116 0.978664 0.963872 0.929252 0.876852 0.846155 0.856374 0.784013 0.418582 0.124751
   0.003007 0.001212 0.000565 0.004091 0.037844 0.120429 0.218170 0.365913 0.347083 0.135358 0.041576 0.009116 0.002166 0.001927 0.005293 0.029181 0.126333 0.134863 0.068558 0.029192 0.006795 0.054878 0.008339 0.157994 0.998300 0.885177 0.875729 0.913175 0.934719 0.930617 0.913033 0.885960 0.843562 0.787854 0.746819 0.754654 0.773505 0.668309 0.392678 0.440931
   0.000583 0.000067 0.002875 0.316932 0.582823 0.584649 0.705698 0.839113 0.635208 0.213976 0.024831 0.001003 0.000325 0.001763 0.017831 0.108104 0.153274 0.090016 0.036624 0.006214 0.001455 0.008339 0.086954 0.905309 0.934853 0.875884 0.877888 0.892018 0.890080 0.864404 0.816117 0.751445 0.685804 0.641322 0.643085 0.688028 0.699610 0.596000 0.418864 0.920116
   0.000038 0.000067 0.069045 0.501178 0.995869 0.940630 0.990816 0.992271 0.785860 0.147556 0.002193 0.000110 0.000857 0.020379 0.129500 0.202962 0.148532 0.077358 0.018305 0.001342 0.014146 0.157994 0.905309 0.947048 0.883333 0.871433 0.876266 0.871577 0.832698 0.746741 0.630306 0.536434 0.498591 0.517229 0.581416 0.651465 0.658041 0.578646 0.479920 0.233324
   0.000005 0.010953 0.039525 0.441863 0.950881 0.979967 0.973317 0.992798 0.417281 0.007284 0.000166 0.000776 0.040942 0.190067 0.237231 0.206428 0.135136 0.046767 0.004317 0.001537 0.247430 0.998300 0.934853 0.883333 0.871620 0.873695 0.866856 0.810018 0.663260 0.457955 0.314699 0.283141 0.343007 0.455575 0.572509 0.647767 0.654353 0.605231 0.567264 0.050958
   0.000052 0.013988 0.056816 0.415739 0.803997 0.913157 0.999808 0.537253 0.014841 0.000378 0.000905 0.057002 0.263107 0.258415 0.232608 0.180565 0.081857 0.010782 0.001496 0.010711 0.567634 0.885177 0.875884 0.871433 0.873695 0.866815 0.798640 0.592805 0.301017 0.130972 0.092746 0.144071 0.296113 0.481647 0.609700 0.671396 0.684592 0.682019 0.715919 0.019109
   0.000222 0.019567 0.092237 0.474775 0.875580 0.989415 0.450358 0.018228 0.000602 0.000998 0.043814 0.283043 0.298341 0.267648 0.224283 0.122315 0.018548 0.001692 0.002614 0.101998 0.770928 0.875729 0.877888 0.876266 0.866856 0.798640 0.568987 0.232016 0.059527 0.023954 0.038791 0.143469 0.380359 0.575023 0.670898 0.716904 0.756510 0.846229 0.861228 0.029982
   0.002118 0.147911 0.405744 0.999999 0.665793 0.209991 0.013881 0.000638 0.000880 0.028020 0.238166 0.330670 0.339600 0.319183 0.212376 0.031589 0.001544 0.000851 0.019956 0.621229 0.926492 0.913175 0.892018 0.871577 0.810018 0.592805 0.232016 0.046161 0.010380 0.012820 0.065100 0.283046 0.548207 0.681786 0.740684 0.789759 0.886241 0.997727 0.336536 0.012358
   0.246046 0.161885 0.236893 0.143830 0.056672 0.007115 0.000564 0.000666 0.015194 0.156768 0.310014 0.416259 0.516698 0.502092 0.081125 0.001481 0.000257 0.004387 0.526169 0.996153 0.986710 0.934718 0.890080 0.832698 0.663260 0.301017 0.059527 0.010380 0.008838 0.042186 0.220322 0.520349 0.698368 0.772081 0.818934 0.896803 0.997028 0.999247 0.018621 0.001599
   0.024719 0.038719 0.039785 0.019992 0.004074 0.000610 0.000616 0.007414 0.075026 0.218647 0.421517 0.784891 0.999964 0.403591 0.001830 0.000085 0.000952 0.490415 0.617178 0.925049 0.992965 0.930617 0.864404 0.746741 0.457955 0.130971 0.023954 0.012820 0.042186 0.200865 0.497855 0.705647 0.799013 0.848511 0.910222 0.992450 0.977599 0.264066 0.003400 0.002902
   0.024618 0.027228 0.015707 0.004336 0.001054 0.000946 0.004748 0.029913 0.103829 0.283621 0.850516 0.646032 0.989966 0.001931 0.000037 0.000222 0.539782 0.212474 0.529050 0.942760 0.987116 0.913033 0.816117 0.630306 0.314698 0.092746 0.038791 0.065100 0.220322 0.497855 0.705948 0.812306 0.869378 0.925413 0.991995 0.972509 0.944372 0.028113 0.002760 0.011967
   0.030911 0.024172 0.008256 0.002531 0.002024 0.005281 0.016361 0.040455 0.106729 0.387361 0.999429 0.173164 0.000813 0.000020 0.000070 0.670005 0.065566 0.219949 0.619134 0.968477 0.978664 0.885960 0.751445 0.536434 0.283141 0.144071 0.143469 0.283046 0.520349 0.705647 0.812306 0.876720 0.935260 0.994493 0.966844 0.978457 0.247522 0.008686 0.005758 0.048043
   0.031587 0.019901 0.006638 0.004193 0.007522 0.015844 0.022105 0.031836 0.054233 0.047379 0.004581 0.000171 0.000013 0.000042 0.033383 0.018853 0.087497 0.300513 0.699992 0.983513 0.963872 0.843562 0.685804 0.498591 0.343007 0.296113 0.380359 0.548207 0.698368 0.799013 0.869378 0.935260 0.995755 0.959258 0.927121 0.793904 0.053161 0.006086 0.017026 0.137856
   0.019315 0.013732 0.007052 0.008745 0.018208 0.019939 0.013170 0.008233 0.003285 0.000439 0.000041 0.000012 0.000053 0.019500 0.006575 0.034047 0.143737 0.392200 0.781290 0.998035 0.929252 0.787854 0.641322 0.517229 0.455575 0.481647 0.575023 0.681787 0.772081 0.848511 0.925413 0.994493 0.959258 0.908464 0.970788 0.219788 0.019290 0.007145 0.041725 0.221991
   0.006503 0.006414 0.006244 0.012941 0.018549 0.008651 0.002669 0.000616 0.000091 0.000016 0.000015 0.000112 0.151652 0.004054 0.014210 0.066288 0.218783 0.516713 0.897355 0.991722 0.876852 0.746819 0.643085 0.581416 0.572509 0.609700 0.670898 0.740684 0.818934 0.910222 0.991995 0.966844 0.927121 0.970788 0.344163 0.052770 0.010385 0.009573 0.048065 0.183726
   0.001317 0.001633 0.002951 0.007884 0.007031 0.002349 0.000523 0.000087 0.000022 0.000035 0.000472 0.104899 0.004959 0.008184 0.028555 0.107388 0.322620 0.717168 0.989536 0.953199 0.846155 0.754654 0.688028 0.651465 0.647767 0.671397 0.716904 0.789759 0.896803 0.992450 0.972509 0.978457 0.793904 0.219788 0.052770 0.015272 0.007512 0.008903 0.025571 0.078863
   0.000431 0.000354 0.000638 0.002405 0.002760 0.001119 0.000352 0.000144 0.000201 0.003791 0.014697 0.007339 0.008982 0.015944 0.044496 0.160300 0.527889 0.945002 0.989704 0.928647 0.856374 0.773505 0.699610 0.658041 0.654353 0.684592 0.756510 0.886241 0.997028 0.977599 0.944372 0.247523 0.053161 0.019290 0.010385 0.007512 0.005722 0.005333 0.008961 0.020327
   0.000490 0.000099 0.000103 0.000948 0.001793 0.001167 0.000865 0.000839 0.001410 0.025006 0.034897 0.045952 0.063102 0.048229 0.105757 0.478739 0.995597 0.939794 0.917493 0.882687 0.784013 0.668309 0.596000 0.578646 0.605231 0.682019 0.846229 0.997727 0.999247 0.264066 0.028113 0.008686 0.006086 0.007145 0.009573 0.008903 0.005333 0.003185 0.003433 0.006610
   0.001008 0.000026 0.000017 0.001216 0.002561 0.002337 0.002213 0.001391 0.000786 0.000971 0.001268 0.000738 0.000945 0.004234 0.022360 0.066901 0.153214 0.318627 0.473536 0.476195 0.418582 0.392679 0.418864 0.479920 0.567264 0.715920 0.861229 0.336536 0.018621 0.003400 0.002760 0.005758 0.017026 0.041725 0.048065 0.025571 0.008961 0.003433 0.002793 0.003493
   0.002282 0.000004 0.000035 0.031565 0.004424 0.003554 0.002661 0.001104 0.000303 0.000093 0.000032 0.000018 0.000045 0.000283 0.001524 0.006081 0.020710 0.050106 0.070045 0.078774 0.124751 0.440931 0.920131 0.233340 0.050958 0.019109 0.029982 0.012358 0.001599 0.002902 0.011967 0.048043 0.137856 0.221991 0.183726 0.078862 0.020327 0.006610 0.003493 0.001741

   0.002744 0.005621 0.020442 0.050947 0.101569 0.379952 0.774453 0.000544 0.000039 0.000817 0.012484 0.041081 0.082938 0.006715 0.000029 0.000027 0.026251 0.187121 0.043829 0.025807 0.010825 0.001155 0.000092 0.000033 0.000010 0.000053 0.000291 0.001821 0.039698 0.076912 0.023781 0.016727 0.011950 0.008107 0.004216 0.001219 0.000257 0.000066 0.000015 0.000002