Si                                      
   5.43000000000000     
     0.504279    0.504279    0.000000
     0.000000    0.504279    0.504279
     0.504279    0.000000    0.504279
   Si
     2
Direct
  0.000000  0.000000  0.000000
  0.250000  0.250000  0.250000
 
   20   20   20
 0.42335E-01 0.79806E-01 0.25496     0.54610     0.73840     0.80813     0.80266     0.73964     0.63072     0.51871    
 0.47171     0.51871     0.63072     0.73964     0.80266     0.80813     0.73840     0.54610     0.25496     0.79806E-01
 0.79806E-01 0.23859     0.57361     0.79290     0.86887     0.87860     0.84681     0.77420     0.66631     0.57846    
 0.57846     0.66631     0.77420     0.84681     0.87860     0.86887     0.79290     0.57361     0.23859     0.79806E-01
 0.25496     0.57361     0.81316     0.89637     0.91407     0.90057     0.85958     0.77861     0.67172     0.61912    
 0.67172     0.77861     0.85958     0.90057     0.91407     0.89637     0.81316     0.57361     0.25496     0.14750    
 0.54610     0.79290     0.89637     0.92417     0.92184     0.90057     0.84751     0.74469     0.64332     0.64332    
 0.74469     0.84751     0.90057     0.92184     0.92417     0.89637     0.79290     0.54610     0.31547     0.31547    
 0.73840     0.86887     0.91407     0.92184     0.91237     0.87860     0.79179     0.65856     0.58905     0.65856    
 0.79179     0.87860     0.91237     0.92184     0.91407     0.86887     0.73840     0.52826     0.42343     0.52826    
 0.80813     0.87860     0.90057     0.90057     0.87860     0.80813     0.66768     0.53474     0.53474     0.66768    
 0.80813     0.87860     0.90057     0.90057     0.87860     0.80813     0.66768     0.53474     0.53474     0.66768    
 0.80266     0.84681     0.85958     0.84751     0.79179     0.66768     0.51195     0.44120     0.51195     0.66768    
 0.79179     0.84751     0.85958     0.84681     0.80266     0.70855     0.59097     0.53643     0.59097     0.70855    
 0.73964     0.77420     0.77861     0.74469     0.65856     0.53474     0.44120     0.44120     0.53474     0.65856    
 0.74469     0.77861     0.77420     0.73964     0.66803     0.56860     0.49451     0.49451     0.56860     0.66803    
 0.63072     0.66631     0.67172     0.64332     0.58905     0.53474     0.51195     0.53474     0.58905     0.64332    
 0.67172     0.66631     0.63072     0.56639     0.47829     0.39910     0.36812     0.39910     0.47829     0.56639    
 0.51871     0.57846     0.61912     0.64332     0.65856     0.66768     0.66768     0.65856     0.64332     0.61912    
 0.57846     0.51871     0.44384     0.35974     0.28277     0.23789     0.23789     0.28277     0.35974     0.44384    
 0.47171     0.57846     0.67172     0.74469     0.79179     0.80813     0.79179     0.74469     0.67172     0.57846    
 0.47171     0.36297     0.26503     0.18795     0.13992     0.12402     0.13992     0.18795     0.26503     0.36297    
 0.51871     0.66631     0.77861     0.84751     0.87860     0.87860     0.84751     0.77861     0.66631     0.51871    
 0.36297     0.23073     0.13841     0.85388E-01 0.62718E-01 0.62718E-01 0.85388E-01 0.13841     0.23073     0.36297    
 0.63072     0.77420     0.85958     0.90057     0.91237     0.90057     0.85958     0.77420     0.63072     0.44384    
 0.26503     0.13841     0.68881E-01 0.38751E-01 0.30817E-01 0.38751E-01 0.68881E-01 0.13841     0.26503     0.44384    
 0.73964     0.84681     0.90057     0.92184     0.92184     0.90057     0.84681     0.73964     0.56639     0.35974    
 0.18795     0.85388E-01 0.38751E-01 0.22842E-01 0.22842E-01 0.38751E-01 0.85388E-01 0.18795     0.35974     0.56639    
 0.80266     0.87860     0.91407     0.92417     0.91407     0.87860     0.80266     0.66803     0.47829     0.28277    
 0.13992     0.62718E-01 0.30817E-01 0.22842E-01 0.30817E-01 0.62718E-01 0.13992     0.28277     0.47829     0.66803    
 0.80813     0.86887     0.89637     0.89637     0.86887     0.80813     0.70855     0.56860     0.39910     0.23789    
 0.12402     0.62718E-01 0.38751E-01 0.38751E-01 0.62718E-01 0.12402     0.23789     0.39910     0.56860     0.70855    
 0.73840     0.79290     0.81316     0.79290     0.73840     0.66768     0.59097     0.49451     0.36812     0.23789    
 0.13992     0.85388E-01 0.68881E-01 0.85388E-01 0.13992     0.23789     0.36812     0.49451     0.59097     0.66768    
 0.54610     0.57361     0.57361     0.54610     0.52826     0.53474     0.53643     0.49451     0.39910     0.28277    
 0.18795     0.13841     0.13841     0.18795     0.28277     0.39910     0.49451     0.53643     0.53474     0.52826    
 0.25496     0.23859     0.25496     0.31547     0.42343     0.53474     0.59097     0.56860     0.47829     0.35974    
 0.26503     0.23073     0.26503     0.35974     0.47829     0.56860     0.59097     0.53474     0.42343     0.31547    
 0.79806E-01 0.79806E-01 0.14750     0.31547     0.52826     0.66768     0.70855     0.66803     0.56639     0.44384    
 0.36297     0.36297     0.44384     0.56639     0.66803     0.70855     0.66768     0.52826     0.31547     0.14750    
 0.79806E-01 0.23859     0.57361     0.79290     0.86887     0.87860     0.84681     0.77420     0.66631     0.57846    
 0.57846     0.66631     0.77420     0.84681     0.87860     0.86887     0.79290     0.57361     0.23859     0.79806E-01
 0.23859     0.58926     0.83430     0.91075     0.92568     0.91237     0.87328     0.79481     0.68810     0.63447    
 0.68810     0.79481     0.87328     0.91237     0.92568     0.91075     0.83430     0.58926     0.23859     0.12557    
 0.57361     0.83430     0.92347     0.94410     0.94069     0.92184     0.87439     0.77563     0.67104     0.67104    
 0.77563     0.87439     0.92184     0.94069     0.94410     0.92347     0.83430     0.57361     0.29957     0.29957    
 0.79290     0.91075     0.94410     0.94843     0.94069     0.91407     0.83730     0.70063     0.62238     0.70063    
 0.83730     0.91407     0.94069     0.94843     0.94410     0.91075     0.79290     0.55484     0.42327     0.55484    
 0.86887     0.92568     0.94069     0.94069     0.92568     0.86887     0.72684     0.56518     0.56518     0.72684    
 0.86887     0.92568     0.94069     0.94069     0.92568     0.86887     0.72684     0.56518     0.56518     0.72684    
 0.87860     0.91237     0.92184     0.91407     0.86887     0.73840     0.52826     0.42343     0.52826     0.73840    
 0.86887     0.91407     0.92184     0.91237     0.87860     0.79179     0.65856     0.58905     0.65856     0.79179    
 0.84681     0.87328     0.87439     0.83730     0.72684     0.52826     0.36479     0.36479     0.52826     0.72684    
 0.83730     0.87439     0.87328     0.84681     0.78383     0.67772     0.58565     0.58565     0.67772     0.78383    
 0.77420     0.79481     0.77563     0.70063     0.56518     0.42343     0.36479     0.42343     0.56518     0.70063    
 0.77563     0.79481     0.77420     0.71858     0.62588     0.52792     0.48612     0.52792     0.62588     0.71858    
 0.66631     0.68810     0.67104     0.62238     0.56518     0.52826     0.52826     0.56518     0.62238     0.67104    
 0.68810     0.66631     0.60897     0.52097     0.42258     0.35846     0.35846     0.42258     0.52097     0.60897    
 0.57846     0.63447     0.67104     0.70063     0.72684     0.73840     0.72684     0.70063     0.67104     0.63447    
 0.57846     0.49841     0.40234     0.30618     0.23536     0.21014     0.23536     0.30618     0.40234     0.49841    
 0.57846     0.68810     0.77563     0.83730     0.86887     0.86887     0.83730     0.77563     0.68810     0.57846    
 0.45255     0.32644     0.22040     0.14783     0.11273     0.11273     0.14783     0.22040     0.32644     0.45255    
 0.66631     0.79481     0.87439     0.91407     0.92568     0.91407     0.87439     0.79481     0.66631     0.49841    
 0.32644     0.19034     0.10561     0.64351E-01 0.52660E-01 0.64351E-01 0.10561     0.19034     0.32644     0.49841    
 0.77420     0.87328     0.92184     0.94069     0.94069     0.92184     0.87328     0.77420     0.60897     0.40234    
 0.22040     0.10561     0.50669E-01 0.31104E-01 0.31104E-01 0.50669E-01 0.10561     0.22040     0.40234     0.60897    
 0.84681     0.91237     0.94069     0.94843     0.94069     0.91237     0.84681     0.71858     0.52097     0.30618    
 0.14783     0.64351E-01 0.31104E-01 0.22998E-01 0.31104E-01 0.64351E-01 0.14783     0.30618     0.52097     0.71858    
 0.87860     0.92568     0.94410     0.94410     0.92568     0.87860     0.78383     0.62588     0.42258     0.23536    
 0.11273     0.52660E-01 0.31104E-01 0.31104E-01 0.52660E-01 0.11273     0.23536     0.42258     0.62588     0.78383    
 0.86887     0.91075     0.92347     0.91075     0.86887     0.79179     0.67772     0.52792     0.35846     0.21014    
 0.11273     0.64351E-01 0.50669E-01 0.64351E-01 0.11273     0.21014     0.35846     0.52792     0.67772     0.79179    
 0.79290     0.83430     0.83430     0.79290     0.72684     0.65856     0.58565     0.48612     0.35846     0.23536    
 0.14783     0.10561     0.10561     0.14783     0.23536     0.35846     0.48612     0.58565     0.65856     0.72684    
 0.57361     0.58926     0.57361     0.55484     0.56518     0.58905     0.58565     0.52792     0.42258     0.30618    
 0.22040     0.19034     0.22040     0.30618     0.42258     0.52792     0.58565     0.58905     0.56518     0.55484    
 0.23859     0.23859     0.29957     0.42327     0.56518     0.65856     0.67772     0.62588     0.52097     0.40234    
 0.32644     0.32644     0.40234     0.52097     0.62588     0.67772     0.65856     0.56518     0.42327     0.29957    
 0.79806E-01 0.12557     0.29957     0.55484     0.72684     0.79179     0.78383     0.71858     0.60897     0.49841    
 0.45255     0.49841     0.60897     0.71858     0.78383     0.79179     0.72684     0.55484     0.29957     0.12557    
 0.25496     0.57361     0.81316     0.89637     0.91407     0.90057     0.85958     0.77861     0.67172     0.61912    
 0.67172     0.77861     0.85958     0.90057     0.91407     0.89637     0.81316     0.57361     0.25496     0.14750    
 0.57361     0.83430     0.92347     0.94410     0.94069     0.92184     0.87439     0.77563     0.67104     0.67104    
 0.77563     0.87439     0.92184     0.94069     0.94410     0.92347     0.83430     0.57361     0.29957     0.29957    
 0.81316     0.92347     0.95242     0.95563     0.94843     0.92417     0.85151     0.71507     0.63417     0.71507    
 0.85151     0.92417     0.94843     0.95563     0.95242     0.92347     0.81316     0.56879     0.42718     0.56879    
 0.89637     0.94410     0.95563     0.95563     0.94410     0.89637     0.76039     0.58628     0.58628     0.76039    
 0.89637     0.94410     0.95563     0.95563     0.94410     0.89637     0.76039     0.58628     0.58628     0.76039    
 0.91407     0.94069     0.94843     0.94410     0.91075     0.79290     0.55484     0.42327     0.55484     0.79290    
 0.91075     0.94410     0.94843     0.94069     0.91407     0.83730     0.70063     0.62238     0.70063     0.83730    
 0.90057     0.92184     0.92417     0.89637     0.79290     0.54610     0.31547     0.31547     0.54610     0.79290    
 0.89637     0.92417     0.92184     0.90057     0.84751     0.74469     0.64332     0.64332     0.74469     0.84751    
 0.85958     0.87439     0.85151     0.76039     0.55484     0.31547     0.22498     0.31547     0.55484     0.76039    
 0.85151     0.87439     0.85958     0.81292     0.72562     0.61998     0.57096     0.61998     0.72562     0.81292    
 0.77861     0.77563     0.71507     0.58628     0.42327     0.31547     0.31547     0.42327     0.58628     0.71507    
 0.77563     0.77861     0.73633     0.65319     0.54513     0.46698     0.46698     0.54513     0.65319     0.73633    
 0.67172     0.67104     0.63417     0.58628     0.55484     0.54610     0.55484     0.58628     0.63417     0.67104    
 0.67172     0.62721     0.54282     0.43548     0.34389     0.30905     0.34389     0.43548     0.54282     0.62721    
 0.61912     0.67104     0.71507     0.76039     0.79290     0.79290     0.76039     0.71507     0.67104     0.61912    
 0.54190     0.43807     0.32645     0.23366     0.18311     0.18311     0.23366     0.32645     0.43807     0.54190    
 0.67172     0.77563     0.85151     0.89637     0.91075     0.89637     0.85151     0.77563     0.67172     0.54190    
 0.39605     0.26104     0.16188     0.10611     0.88919E-01 0.10611     0.16188     0.26104     0.39605     0.54190    
 0.77861     0.87439     0.92417     0.94410     0.94410     0.92417     0.87439     0.77861     0.62721     0.43807    
 0.26104     0.13805     0.72616E-01 0.47117E-01 0.47117E-01 0.72616E-01 0.13805     0.26104     0.43807     0.62721    
 0.85958     0.92184     0.94843     0.95563     0.94843     0.92184     0.85958     0.73633     0.54282     0.32645    
 0.16188     0.72616E-01 0.36130E-01 0.27068E-01 0.36130E-01 0.72616E-01 0.16188     0.32645     0.54282     0.73633    
 0.90057     0.94069     0.95563     0.95563     0.94069     0.90057     0.81292     0.65319     0.43548     0.23366    
 0.10611     0.47117E-01 0.27068E-01 0.27068E-01 0.47117E-01 0.10611     0.23366     0.43548     0.65319     0.81292    
 0.91407     0.94410     0.95242     0.94410     0.91407     0.84751     0.72562     0.54513     0.34389     0.18311    
 0.88919E-01 0.47117E-01 0.36130E-01 0.47117E-01 0.88919E-01 0.18311     0.34389     0.54513     0.72562     0.84751    
 0.89637     0.92347     0.92347     0.89637     0.83730     0.74469     0.61998     0.46698     0.30905     0.18311    
 0.10611     0.72616E-01 0.72616E-01 0.10611     0.18311     0.30905     0.46698     0.61998     0.74469     0.83730    
 0.81316     0.83430     0.81316     0.76039     0.70063     0.64332     0.57096     0.46698     0.34389     0.23366    
 0.16188     0.13805     0.16188     0.23366     0.34389     0.46698     0.57096     0.64332     0.70063     0.76039    
 0.57361     0.57361     0.56879     0.58628     0.62238     0.64332     0.61998     0.54513     0.43548     0.32645    
 0.26104     0.26104     0.32645     0.43548     0.54513     0.61998     0.64332     0.62238     0.58628     0.56879    
 0.25496     0.29957     0.42718     0.58628     0.70063     0.74469     0.72562     0.65319     0.54282     0.43807    
 0.39605     0.43807     0.54282     0.65319     0.72562     0.74469     0.70063     0.58628     0.42718     0.29957    
 0.14750     0.29957     0.56879     0.76039     0.83730     0.84751     0.81292     0.73633     0.62721     0.54190    
 0.54190     0.62721     0.73633     0.81292     0.84751     0.83730     0.76039     0.56879     0.29957     0.14750    
 0.54610     0.79290     0.89637     0.92417     0.92184     0.90057     0.84751     0.74469     0.64332     0.64332    
 0.74469     0.84751     0.90057     0.92184     0.92417     0.89637     0.79290     0.54610     0.31547     0.31547    
 0.79290     0.91075     0.94410     0.94843     0.94069     0.91407     0.83730     0.70063     0.62238     0.70063    
 0.83730     0.91407     0.94069     0.94843     0.94410     0.91075     0.79290     0.55484     0.42327     0.55484    
 0.89637     0.94410     0.95563     0.95563     0.94410     0.89637     0.76039     0.58628     0.58628     0.76039    
 0.89637     0.94410     0.95563     0.95563     0.94410     0.89637     0.76039     0.58628     0.58628     0.76039    
 0.92417     0.94843     0.95563     0.95242     0.92347     0.81316     0.56879     0.42718     0.56879     0.81316    
 0.92347     0.95242     0.95563     0.94843     0.92417     0.85151     0.71507     0.63417     0.71507     0.85151    
 0.92184     0.94069     0.94410     0.92347     0.83430     0.57361     0.29957     0.29957     0.57361     0.83430    
 0.92347     0.94410     0.94069     0.92184     0.87439     0.77563     0.67104     0.67104     0.77563     0.87439    
 0.90057     0.91407     0.89637     0.81316     0.57361     0.25496     0.14750     0.25496     0.57361     0.81316    
 0.89637     0.91407     0.90057     0.85958     0.77861     0.67172     0.61912     0.67172     0.77861     0.85958    
 0.84751     0.83730     0.76039     0.56879     0.29957     0.14750     0.14750     0.29957     0.56879     0.76039    
 0.83730     0.84751     0.81292     0.73633     0.62721     0.54190     0.54190     0.62721     0.73633     0.81292    
 0.74469     0.70063     0.58628     0.42718     0.29957     0.25496     0.29957     0.42718     0.58628     0.70063    
 0.74469     0.72562     0.65319     0.54282     0.43807     0.39605     0.43807     0.54282     0.65319     0.72562    
 0.64332     0.62238     0.58628     0.56879     0.57361     0.57361     0.56879     0.58628     0.62238     0.64332    
 0.61998     0.54513     0.43548     0.32645     0.26104     0.26104     0.32645     0.43548     0.54513     0.61998    
 0.64332     0.70063     0.76039     0.81316     0.83430     0.81316     0.76039     0.70063     0.64332     0.57096    
 0.46698     0.34389     0.23366     0.16188     0.13805     0.16188     0.23366     0.34389     0.46698     0.57096    
 0.74469     0.83730     0.89637     0.92347     0.92347     0.89637     0.83730     0.74469     0.61998     0.46698    
 0.30905     0.18311     0.10611     0.72616E-01 0.72616E-01 0.10611     0.18311     0.30905     0.46698     0.61998    
 0.84751     0.91407     0.94410     0.95242     0.94410     0.91407     0.84751     0.72562     0.54513     0.34389    
 0.18311     0.88919E-01 0.47117E-01 0.36130E-01 0.47117E-01 0.88919E-01 0.18311     0.34389     0.54513     0.72562    
 0.90057     0.94069     0.95563     0.95563     0.94069     0.90057     0.81292     0.65319     0.43548     0.23366    
 0.10611     0.47117E-01 0.27068E-01 0.27068E-01 0.47117E-01 0.10611     0.23366     0.43548     0.65319     0.81292    
 0.92184     0.94843     0.95563     0.94843     0.92184     0.85958     0.73633     0.54282     0.32645     0.16188    
 0.72616E-01 0.36130E-01 0.27068E-01 0.36130E-01 0.72616E-01 0.16188     0.32645     0.54282     0.73633     0.85958    
 0.92417     0.94410     0.94410     0.92417     0.87439     0.77861     0.62721     0.43807     0.26104     0.13805    
 0.72616E-01 0.47117E-01 0.47117E-01 0.72616E-01 0.13805     0.26104     0.43807     0.62721     0.77861     0.87439    
 0.89637     0.91075     0.89637     0.85151     0.77563     0.67172     0.54190     0.39605     0.26104     0.16188    
 0.10611     0.88919E-01 0.10611     0.16188     0.26104     0.39605     0.54190     0.67172     0.77563     0.85151    
 0.79290     0.79290     0.76039     0.71507     0.67104     0.61912     0.54190     0.43807     0.32645     0.23366    
 0.18311     0.18311     0.23366     0.32645     0.43807     0.54190     0.61912     0.67104     0.71507     0.76039    
 0.54610     0.55484     0.58628     0.63417     0.67104     0.67172     0.62721     0.54282     0.43548     0.34389    
 0.30905     0.34389     0.43548     0.54282     0.62721     0.67172     0.67104     0.63417     0.58628     0.55484    
 0.31547     0.42327     0.58628     0.71507     0.77563     0.77861     0.73633     0.65319     0.54513     0.46698    
 0.46698     0.54513     0.65319     0.73633     0.77861     0.77563     0.71507     0.58628     0.42327     0.31547    
 0.31547     0.55484     0.76039     0.85151     0.87439     0.85958     0.81292     0.72562     0.61998     0.57096    
 0.61998     0.72562     0.81292     0.85958     0.87439     0.85151     0.76039     0.55484     0.31547     0.22498    
 0.73840     0.86887     0.91407     0.92184     0.91237     0.87860     0.79179     0.65856     0.58905     0.65856    
 0.79179     0.87860     0.91237     0.92184     0.91407     0.86887     0.73840     0.52826     0.42343     0.52826    
 0.86887     0.92568     0.94069     0.94069     0.92568     0.86887     0.72684     0.56518     0.56518     0.72684    
 0.86887     0.92568     0.94069     0.94069     0.92568     0.86887     0.72684     0.56518     0.56518     0.72684    
 0.91407     0.94069     0.94843     0.94410     0.91075     0.79290     0.55484     0.42327     0.55484     0.79290    
 0.91075     0.94410     0.94843     0.94069     0.91407     0.83730     0.70063     0.62238     0.70063     0.83730    
 0.92184     0.94069     0.94410     0.92347     0.83430     0.57361     0.29957     0.29957     0.57361     0.83430    
 0.92347     0.94410     0.94069     0.92184     0.87439     0.77563     0.67104     0.67104     0.77563     0.87439    
 0.91237     0.92568     0.91075     0.83430     0.58926     0.23859     0.12557     0.23859     0.58926     0.83430    
 0.91075     0.92568     0.91237     0.87328     0.79481     0.68810     0.63447     0.68810     0.79481     0.87328    
 0.87860     0.86887     0.79290     0.57361     0.23859     0.79806E-01 0.79806E-01 0.23859     0.57361     0.79290    
 0.86887     0.87860     0.84681     0.77420     0.66631     0.57846     0.57846     0.66631     0.77420     0.84681    
 0.79179     0.72684     0.55484     0.29957     0.12557     0.79806E-01 0.12557     0.29957     0.55484     0.72684    
 0.79179     0.78383     0.71858     0.60897     0.49841     0.45255     0.49841     0.60897     0.71858     0.78383    
 0.65856     0.56518     0.42327     0.29957     0.23859     0.23859     0.29957     0.42327     0.56518     0.65856    
 0.67772     0.62588     0.52097     0.40234     0.32644     0.32644     0.40234     0.52097     0.62588     0.67772    
 0.58905     0.56518     0.55484     0.57361     0.58926     0.57361     0.55484     0.56518     0.58905     0.58565    
 0.52792     0.42258     0.30618     0.22040     0.19034     0.22040     0.30618     0.42258     0.52792     0.58565    
 0.65856     0.72684     0.79290     0.83430     0.83430     0.79290     0.72684     0.65856     0.58565     0.48612    
 0.35846     0.23536     0.14783     0.10561     0.10561     0.14783     0.23536     0.35846     0.48612     0.58565    
 0.79179     0.86887     0.91075     0.92347     0.91075     0.86887     0.79179     0.67772     0.52792     0.35846    
 0.21014     0.11273     0.64351E-01 0.50669E-01 0.64351E-01 0.11273     0.21014     0.35846     0.52792     0.67772    
 0.87860     0.92568     0.94410     0.94410     0.92568     0.87860     0.78383     0.62588     0.42258     0.23536    
 0.11273     0.52660E-01 0.31104E-01 0.31104E-01 0.52660E-01 0.11273     0.23536     0.42258     0.62588     0.78383    
 0.91237     0.94069     0.94843     0.94069     0.91237     0.84681     0.71858     0.52097     0.30618     0.14783    
 0.64351E-01 0.31104E-01 0.22998E-01 0.31104E-01 0.64351E-01 0.14783     0.30618     0.52097     0.71858     0.84681    
 0.92184     0.94069     0.94069     0.92184     0.87328     0.77420     0.60897     0.40234     0.22040     0.10561    
 0.50669E-01 0.31104E-01 0.31104E-01 0.50669E-01 0.10561     0.22040     0.40234     0.60897     0.77420     0.87328    
 0.91407     0.92568     0.91407     0.87439     0.79481     0.66631     0.49841     0.32644     0.19034     0.10561    
 0.64351E-01 0.52660E-01 0.64351E-01 0.10561     0.19034     0.32644     0.49841     0.66631     0.79481     0.87439    
 0.86887     0.86887     0.83730     0.77563     0.68810     0.57846     0.45255     0.32644     0.22040     0.14783    
 0.11273     0.11273     0.14783     0.22040     0.32644     0.45255     0.57846     0.68810     0.77563     0.83730    
 0.73840     0.72684     0.70063     0.67104     0.63447     0.57846     0.49841     0.40234     0.30618     0.23536    
 0.21014     0.23536     0.30618     0.40234     0.49841     0.57846     0.63447     0.67104     0.70063     0.72684    
 0.52826     0.56518     0.62238     0.67104     0.68810     0.66631     0.60897     0.52097     0.42258     0.35846    
 0.35846     0.42258     0.52097     0.60897     0.66631     0.68810     0.67104     0.62238     0.56518     0.52826    
 0.42343     0.56518     0.70063     0.77563     0.79481     0.77420     0.71858     0.62588     0.52792     0.48612    
 0.52792     0.62588     0.71858     0.77420     0.79481     0.77563     0.70063     0.56518     0.42343     0.36479    
 0.52826     0.72684     0.83730     0.87439     0.87328     0.84681     0.78383     0.67772     0.58565     0.58565    
 0.67772     0.78383     0.84681     0.87328     0.87439     0.83730     0.72684     0.52826     0.36479     0.36479    
 0.80813     0.87860     0.90057     0.90057     0.87860     0.80813     0.66768     0.53474     0.53474     0.66768    
 0.80813     0.87860     0.90057     0.90057     0.87860     0.80813     0.66768     0.53474     0.53474     0.66768    
 0.87860     0.91237     0.92184     0.91407     0.86887     0.73840     0.52826     0.42343     0.52826     0.73840    
 0.86887     0.91407     0.92184     0.91237     0.87860     0.79179     0.65856     0.58905     0.65856     0.79179    
 0.90057     0.92184     0.92417     0.89637     0.79290     0.54610     0.31547     0.31547     0.54610     0.79290    
 0.89637     0.92417     0.92184     0.90057     0.84751     0.74469     0.64332     0.64332     0.74469     0.84751    
 0.90057     0.91407     0.89637     0.81316     0.57361     0.25496     0.14750     0.25496     0.57361     0.81316    
 0.89637     0.91407     0.90057     0.85958     0.77861     0.67172     0.61912     0.67172     0.77861     0.85958    
 0.87860     0.86887     0.79290     0.57361     0.23859     0.79806E-01 0.79806E-01 0.23859     0.57361     0.79290    
 0.86887     0.87860     0.84681     0.77420     0.66631     0.57846     0.57846     0.66631     0.77420     0.84681    
 0.80813     0.73840     0.54610     0.25496     0.79806E-01 0.42335E-01 0.79806E-01 0.25496     0.54610     0.73840    
 0.80813     0.80266     0.73964     0.63072     0.51871     0.47171     0.51871     0.63072     0.73964     0.80266    
 0.66768     0.52826     0.31547     0.14750     0.79806E-01 0.79806E-01 0.14750     0.31547     0.52826     0.66768    
 0.70855     0.66803     0.56639     0.44384     0.36297     0.36297     0.44384     0.56639     0.66803     0.70855    
 0.53474     0.42343     0.31547     0.25496     0.23859     0.25496     0.31547     0.42343     0.53474     0.59097    
 0.56860     0.47829     0.35974     0.26503     0.23073     0.26503     0.35974     0.47829     0.56860     0.59097    
 0.53474     0.52826     0.54610     0.57361     0.57361     0.54610     0.52826     0.53474     0.53643     0.49451    
 0.39910     0.28277     0.18795     0.13841     0.13841     0.18795     0.28277     0.39910     0.49451     0.53643    
 0.66768     0.73840     0.79290     0.81316     0.79290     0.73840     0.66768     0.59097     0.49451     0.36812    
 0.23789     0.13992     0.85388E-01 0.68881E-01 0.85388E-01 0.13992     0.23789     0.36812     0.49451     0.59097    
 0.80813     0.86887     0.89637     0.89637     0.86887     0.80813     0.70855     0.56860     0.39910     0.23789    
 0.12402     0.62718E-01 0.38751E-01 0.38751E-01 0.62718E-01 0.12402     0.23789     0.39910     0.56860     0.70855    
 0.87860     0.91407     0.92417     0.91407     0.87860     0.80266     0.66803     0.47829     0.28277     0.13992    
 0.62718E-01 0.30817E-01 0.22842E-01 0.30817E-01 0.62718E-01 0.13992     0.28277     0.47829     0.66803     0.80266    
 0.90057     0.92184     0.92184     0.90057     0.84681     0.73964     0.56639     0.35974     0.18795     0.85388E-01
 0.38751E-01 0.22842E-01 0.22842E-01 0.38751E-01 0.85388E-01 0.18795     0.35974     0.56639     0.73964     0.84681    
 0.90057     0.91237     0.90057     0.85958     0.77420     0.63072     0.44384     0.26503     0.13841     0.68881E-01
 0.38751E-01 0.30817E-01 0.38751E-01 0.68881E-01 0.13841     0.26503     0.44384     0.63072     0.77420     0.85958    
 0.87860     0.87860     0.84751     0.77861     0.66631     0.51871     0.36297     0.23073     0.13841     0.85388E-01
 0.62718E-01 0.62718E-01 0.85388E-01 0.13841     0.23073     0.36297     0.51871     0.66631     0.77861     0.84751    
 0.80813     0.79179     0.74469     0.67172     0.57846     0.47171     0.36297     0.26503     0.18795     0.13992    
 0.12402     0.13992     0.18795     0.26503     0.36297     0.47171     0.57846     0.67172     0.74469     0.79179    
 0.66768     0.65856     0.64332     0.61912     0.57846     0.51871     0.44384     0.35974     0.28277     0.23789    
 0.23789     0.28277     0.35974     0.44384     0.51871     0.57846     0.61912     0.64332     0.65856     0.66768    
 0.53474     0.58905     0.64332     0.67172     0.66631     0.63072     0.56639     0.47829     0.39910     0.36812    
 0.39910     0.47829     0.56639     0.63072     0.66631     0.67172     0.64332     0.58905     0.53474     0.51195    
 0.53474     0.65856     0.74469     0.77861     0.77420     0.73964     0.66803     0.56860     0.49451     0.49451    
 0.56860     0.66803     0.73964     0.77420     0.77861     0.74469     0.65856     0.53474     0.44120     0.44120    
 0.66768     0.79179     0.84751     0.85958     0.84681     0.80266     0.70855     0.59097     0.53643     0.59097    
 0.70855     0.80266     0.84681     0.85958     0.84751     0.79179     0.66768     0.51195     0.44120     0.51195    
 0.80266     0.84681     0.85958     0.84751     0.79179     0.66768     0.51195     0.44120     0.51195     0.66768    
 0.79179     0.84751     0.85958     0.84681     0.80266     0.70855     0.59097     0.53643     0.59097     0.70855    
 0.84681     0.87328     0.87439     0.83730     0.72684     0.52826     0.36479     0.36479     0.52826     0.72684    
 0.83730     0.87439     0.87328     0.84681     0.78383     0.67772     0.58565     0.58565     0.67772     0.78383    
 0.85958     0.87439     0.85151     0.76039     0.55484     0.31547     0.22498     0.31547     0.55484     0.76039    