       #
       # Generated by the Wannier90 code http://www.wannier.org
       # On 28Aug2024 at 23:25:36 
       #
CRYSTAL
PRIMVEC
   2.7382345   2.7382345   0.0000000
   0.0000000   2.7382345   2.7382345
   2.7382345   0.0000000   2.7382345
CONVVEC
   2.7382345   2.7382345   0.0000000
   0.0000000   2.7382345   2.7382345
   2.7382345   0.0000000   2.7382345
PRIMCOORD
     2  1
Si      0.0000000   0.0000000   0.0000000
Si      1.3691172   1.3691172   1.3691172


BEGIN_BLOCK_DATAGRID_3D
3D_field
BEGIN_DATAGRID_3D_UNKNOWN
    60    60    60
   -5.750292   -5.750292   -5.750292
   8.0777918   8.0777918   0.0000000
   0.0000000   8.0777918   8.0777918
   8.0777918   0.0000000   8.0777918
 -0.61572E-02  0.77859E-03  0.12091E-01  0.25456E-01  0.36729E-01  0.41986E-01
  0.39865E-01  0.32160E-01  0.22134E-01  0.12356E-01  0.40445E-02 -0.22189E-02
 -0.59837E-02 -0.71686E-02 -0.61600E-02 -0.34159E-02  0.66188E-03  0.53554E-02
  0.96771E-02  0.13147E-01  0.16099E-01  0.18768E-01  0.20394E-01  0.19876E-01
  0.17246E-01  0.13978E-01  0.11775E-01  0.11434E-01  0.12885E-01  0.15691E-01
  0.19152E-01  0.22241E-01  0.23876E-01  0.23289E-01  0.20120E-01  0.14355E-01
  0.62883E-02 -0.36168E-02 -0.14741E-01 -0.25592E-01 -0.32897E-01 -0.32421E-01
 -0.22143E-01 -0.50623E-02  0.11944E-01  0.22911E-01  0.26713E-01  0.26443E-01
  0.25553E-01  0.25148E-01  0.24581E-01  0.23461E-01  0.22172E-01  0.20687E-01
  0.17843E-01  0.12292E-01  0.37791E-02 -0.70172E-02 -0.19412E-01 -0.32276E-01
  0.77859E-03  0.12512E-01  0.27223E-01  0.40853E-01  0.48967E-01  0.49169E-01
  0.42279E-01  0.31348E-01  0.19558E-01  0.89176E-02  0.44926E-03 -0.51972E-02
 -0.77562E-02 -0.76040E-02 -0.55023E-02 -0.21045E-02  0.20468E-02  0.62092E-02
  0.95276E-02  0.11412E-01  0.11537E-01  0.96103E-02  0.56659E-02  0.70669E-03
 -0.34488E-02 -0.52899E-02 -0.44172E-02 -0.12025E-02  0.38426E-02  0.10016E-01
  0.16158E-01  0.21000E-01  0.23757E-01  0.24084E-01  0.21709E-01  0.16611E-01
  0.94091E-02  0.10960E-02 -0.74915E-02 -0.15159E-01 -0.19334E-01 -0.16827E-01
 -0.68145E-02  0.71491E-02  0.19118E-01  0.25265E-01  0.26269E-01  0.25419E-01
  0.25110E-01  0.25560E-01  0.26153E-01  0.26816E-01  0.27620E-01  0.27730E-01
  0.25658E-01  0.20661E-01  0.13281E-01  0.42141E-02 -0.65778E-02 -0.18579E-01
  0.12091E-01  0.27223E-01  0.42270E-01  0.52598E-01  0.55139E-01  0.49829E-01
  0.39132E-01  0.26292E-01  0.13846E-01  0.33332E-02 -0.42854E-02 -0.84834E-02
 -0.94313E-02 -0.79833E-02 -0.51391E-02 -0.15978E-02  0.21119E-02  0.52418E-02
  0.67023E-02  0.53105E-02  0.34711E-03 -0.76646E-02 -0.16549E-01 -0.23289E-01
 -0.25784E-01 -0.23901E-01 -0.18773E-01 -0.11473E-01 -0.27465E-02  0.63647E-02
  0.14474E-01  0.20593E-01  0.24392E-01  0.25612E-01  0.23919E-01  0.19656E-01
  0.14096E-01  0.83714E-02  0.26499E-02 -0.27797E-02 -0.59966E-02 -0.43260E-02
  0.26911E-02  0.11925E-01  0.19018E-01  0.22000E-01  0.22226E-01  0.22182E-01
  0.23168E-01  0.25139E-01  0.27820E-01  0.31065E-01  0.34188E-01  0.35747E-01
  0.34574E-01  0.30822E-01  0.25393E-01  0.18292E-01  0.83756E-02 -0.44496E-02
  0.25456E-01  0.40853E-01  0.52598E-01  0.57156E-01  0.53719E-01  0.44092E-01
  0.31255E-01  0.17925E-01  0.59885E-02 -0.33247E-02 -0.92337E-02 -0.11558E-01
 -0.10901E-01 -0.84044E-02 -0.51570E-02 -0.18639E-02  0.91645E-03  0.22408E-02
  0.58793E-03 -0.54908E-02 -0.16011E-01 -0.28567E-01 -0.39062E-01 -0.44069E-01
 -0.42817E-01 -0.36878E-01 -0.28202E-01 -0.17896E-01 -0.67230E-02  0.41466E-02
  0.13471E-01  0.20590E-01  0.25206E-01  0.26905E-01  0.25631E-01  0.22454E-01
  0.18927E-01  0.15463E-01  0.11204E-01  0.60251E-02  0.19369E-02  0.15318E-02
  0.51284E-02  0.10218E-01  0.13906E-01  0.15394E-01  0.15969E-01  0.17254E-01
  0.20029E-01  0.24366E-01  0.30013E-01  0.36196E-01  0.41425E-01  0.44124E-01
  0.43771E-01  0.41121E-01  0.36859E-01  0.30084E-01  0.18918E-01  0.33369E-02
  0.36729E-01  0.48967E-01  0.55139E-01  0.53719E-01  0.45751E-01  0.33775E-01
  0.20480E-01  0.79506E-02 -0.24179E-02 -0.97212E-02 -0.13482E-01 -0.13828E-01
 -0.11629E-01 -0.82336E-02 -0.48744E-02 -0.23112E-02 -0.11412E-02 -0.24557E-02
 -0.78550E-02 -0.18233E-01 -0.32152E-01 -0.45637E-01 -0.54228E-01 -0.55753E-01
 -0.51190E-01 -0.42967E-01 -0.32803E-01 -0.21335E-01 -0.91651E-02  0.25675E-02
  0.12694E-01  0.20449E-01  0.25284E-01  0.26912E-01  0.25952E-01  0.23913E-01
  0.21815E-01  0.19078E-01  0.14537E-01  0.85931E-02  0.36018E-02  0.17303E-02
  0.28704E-02  0.50442E-02  0.65546E-02  0.73424E-02  0.85378E-02  0.11335E-01
  0.16393E-01  0.23730E-01  0.32591E-01  0.41378E-01  0.48088E-01  0.51325E-01
  0.51078E-01  0.48297E-01  0.43291E-01  0.34695E-01  0.20792E-01  0.24754E-02
  0.41986E-01  0.49169E-01  0.49829E-01  0.44092E-01  0.33775E-01  0.21326E-01
  0.89664E-02 -0.17230E-02 -0.97833E-02 -0.14639E-01 -0.16020E-01 -0.14252E-01
 -0.10514E-01 -0.64963E-02 -0.35654E-02 -0.23569E-02 -0.33024E-02 -0.73681E-02
 -0.15731E-01 -0.28251E-01 -0.42303E-01 -0.53636E-01 -0.58939E-01 -0.57788E-01
 -0.52121E-01 -0.44027E-01 -0.34316E-01 -0.23044E-01 -0.10735E-01  0.13206E-02
  0.11687E-01  0.19303E-01  0.23637E-01  0.24923E-01  0.24261E-01  0.22885E-01
  0.20985E-01  0.17655E-01  0.12372E-01  0.62601E-02  0.14204E-02 -0.95784E-03
 -0.14561E-02 -0.14330E-02 -0.15452E-02 -0.12816E-02  0.49534E-03  0.48499E-02
  0.12305E-01  0.22495E-01  0.33981E-01  0.44514E-01  0.51859E-01  0.54825E-01
  0.53708E-01  0.49510E-01  0.42398E-01  0.31200E-01  0.15165E-01 -0.35344E-02
  0.39865E-01  0.42279E-01  0.39132E-01  0.31255E-01  0.20480E-01  0.89664E-02
 -0.14548E-02 -0.96410E-02 -0.14990E-01 -0.17095E-01 -0.15829E-01 -0.11894E-01
 -0.69843E-02 -0.30182E-02 -0.11119E-02 -0.14785E-02 -0.42982E-02 -0.10282E-01
 -0.19935E-01 -0.32179E-01 -0.44052E-01 -0.52214E-01 -0.55028E-01 -0.53227E-01
 -0.48596E-01 -0.42179E-01 -0.33855E-01 -0.23405E-01 -0.11587E-01 -0.52150E-04
  0.95199E-02  0.16115E-01  0.19584E-01  0.20548E-01  0.20011E-01  0.18628E-01
  0.16240E-01  0.12355E-01  0.71827E-02  0.19172E-02 -0.21865E-02 -0.48641E-02
 -0.67893E-02 -0.85947E-02 -0.10107E-01 -0.10392E-01 -0.82442E-02 -0.26844E-02
  0.65936E-02  0.18802E-01  0.31941E-01  0.43304E-01  0.50535E-01  0.52665E-01
  0.50284E-01  0.44465E-01  0.35437E-01  0.22665E-01  0.66820E-02 -0.94317E-02
  0.32160E-01  0.31348E-01  0.26292E-01  0.17925E-01  0.79506E-02 -0.17230E-02
 -0.96410E-02 -0.15008E-01 -0.17371E-01 -0.16445E-01 -0.12529E-01 -0.69739E-02
 -0.17737E-02  0.15201E-02  0.24181E-02  0.99932E-03 -0.29104E-02 -0.97161E-02
 -0.19141E-01 -0.29558E-01 -0.38505E-01 -0.44087E-01 -0.45993E-01 -0.45190E-01
 -0.42632E-01 -0.38328E-01 -0.31685E-01 -0.22663E-01 -0.12390E-01 -0.26450E-02
  0.51250E-02  0.10302E-01  0.12992E-01  0.13731E-01  0.13176E-01  0.11726E-01
  0.93352E-02  0.58666E-02  0.16308E-02 -0.26168E-02 -0.63268E-02 -0.96258E-02
 -0.12970E-01 -0.16396E-01 -0.19202E-01 -0.20209E-01 -0.18176E-01 -0.12140E-01
 -0.18803E-02  0.11509E-01  0.25505E-01  0.36981E-01  0.43623E-01  0.44897E-01
  0.41704E-01  0.35083E-01  0.25371E-01  0.12854E-01 -0.85211E-03 -0.12637E-01
  0.22134E-01  0.19558E-01  0.13846E-01  0.59885E-02 -0.24179E-02 -0.97833E-02
 -0.14990E-01 -0.17371E-01 -0.16562E-01 -0.12729E-01 -0.69271E-02 -0.87502E-03
  0.38900E-02  0.66304E-02  0.71890E-02  0.54070E-02  0.10499E-02 -0.56807E-02
 -0.13767E-01 -0.21657E-01 -0.27990E-01 -0.32194E-01 -0.34514E-01 -0.35466E-01
 -0.35124E-01 -0.32954E-01 -0.28442E-01 -0.21886E-01 -0.14443E-01 -0.74361E-02
 -0.17299E-02  0.22903E-02  0.45430E-02  0.52807E-02  0.50484E-02  0.42516E-02
  0.27831E-02  0.31684E-03 -0.30709E-02 -0.68673E-02 -0.10747E-01 -0.14912E-01
 -0.19618E-01 -0.24521E-01 -0.28628E-01 -0.30662E-01 -0.29293E-01 -0.23356E-01
 -0.12589E-01  0.14904E-02  0.15688E-01  0.26620E-01  0.32426E-01  0.33190E-01
  0.29936E-01  0.23492E-01  0.14417E-01  0.38036E-02 -0.62915E-02 -0.13594E-01
  0.12356E-01  0.89176E-02  0.33332E-02 -0.33247E-02 -0.97212E-02 -0.14639E-01
 -0.17095E-01 -0.16445E-01 -0.12729E-01 -0.69253E-02 -0.55554E-03  0.51314E-02
  0.95420E-02  0.12347E-01  0.13029E-01  0.11127E-01  0.68529E-02  0.11947E-02
 -0.46911E-02 -0.10093E-01 -0.14806E-01 -0.18866E-01 -0.22328E-01 -0.25115E-01
 -0.26877E-01 -0.27105E-01 -0.25551E-01 -0.22504E-01 -0.18548E-01 -0.14207E-01
 -0.99703E-02 -0.64619E-02 -0.41562E-02 -0.28989E-02 -0.21011E-02 -0.15820E-02
 -0.19111E-02 -0.36869E-02 -0.67637E-02 -0.10544E-01 -0.14834E-01 -0.19957E-01
 -0.25991E-01 -0.32289E-01 -0.37735E-01 -0.41020E-01 -0.40546E-01 -0.34806E-01
 -0.23693E-01 -0.94776E-02  0.40538E-02  0.13807E-01  0.18764E-01  0.19456E-01
  0.16698E-01  0.11167E-01  0.38612E-02 -0.36538E-02 -0.97166E-02 -0.13244E-01
  0.40445E-02  0.44927E-03 -0.42854E-02 -0.92337E-02 -0.13482E-01 -0.16020E-01
 -0.15829E-01 -0.12529E-01 -0.69271E-02 -0.55554E-03  0.54477E-02  0.10792E-01
  0.15335E-01  0.18368E-01  0.19015E-01  0.17241E-01  0.14039E-01  0.10497E-01
  0.69390E-02  0.30856E-02 -0.12410E-02 -0.58604E-02 -0.10500E-01 -0.14963E-01
 -0.19001E-01 -0.22258E-01 -0.24400E-01 -0.25143E-01 -0.24205E-01 -0.21553E-01
 -0.17822E-01 -0.14126E-01 -0.11181E-01 -0.88118E-02 -0.66254E-02 -0.49612E-02
 -0.47179E-02 -0.62945E-02 -0.92271E-02 -0.13020E-01 -0.17842E-01 -0.24054E-01
 -0.31392E-01 -0.38979E-01 -0.45750E-01 -0.50305E-01 -0.50627E-01 -0.45049E-01
 -0.34052E-01 -0.20697E-01 -0.87347E-02 -0.34844E-03  0.41937E-02  0.53423E-02
  0.35523E-02 -0.33516E-03 -0.48726E-02 -0.86647E-02 -0.10996E-01 -0.11606E-01
 -0.22189E-02 -0.51972E-02 -0.84834E-02 -0.11558E-01 -0.13828E-01 -0.14252E-01
 -0.11894E-01 -0.69739E-02 -0.87502E-03  0.51314E-02  0.10792E-01  0.16239E-01
  0.20908E-01  0.23736E-01  0.24391E-01  0.23712E-01  0.22684E-01  0.21365E-01
  0.19126E-01  0.15645E-01  0.11234E-01  0.62424E-02  0.61572E-03 -0.58072E-02
 -0.12803E-01 -0.19696E-01 -0.25549E-01 -0.29301E-01 -0.30096E-01 -0.27912E-01
 -0.23844E-01 -0.19376E-01 -0.15303E-01 -0.11608E-01 -0.83534E-02 -0.62165E-02
 -0.58670E-02 -0.72354E-02 -0.98623E-02 -0.13764E-01 -0.19407E-01 -0.26855E-01
 -0.35433E-01 -0.44258E-01 -0.52380E-01 -0.58132E-01 -0.59151E-01 -0.54058E-01
 -0.44114E-01 -0.32596E-01 -0.22412E-01 -0.14735E-01 -0.97179E-02 -0.74616E-02
 -0.76977E-02 -0.92042E-02 -0.10447E-01 -0.10723E-01 -0.10103E-01 -0.84027E-02
 -0.59837E-02 -0.77562E-02 -0.94313E-02 -0.10901E-01 -0.11629E-01 -0.10514E-01
 -0.69843E-02 -0.17737E-02  0.38900E-02  0.95420E-02  0.15335E-01  0.20908E-01
  0.25250E-01  0.27900E-01  0.29560E-01  0.31067E-01  0.32181E-01  0.31945E-01
  0.29989E-01  0.26843E-01  0.22918E-01  0.17732E-01  0.10473E-01  0.10476E-02
 -0.96273E-02 -0.20078E-01 -0.28691E-01 -0.33963E-01 -0.35028E-01 -0.32279E-01
 -0.27243E-01 -0.21563E-01 -0.16143E-01 -0.11319E-01 -0.75089E-02 -0.52623E-02
 -0.47479E-02 -0.57235E-02 -0.81842E-02 -0.12641E-01 -0.19463E-01 -0.28244E-01
 -0.38136E-01 -0.48403E-01 -0.58018E-01 -0.64932E-01 -0.66757E-01 -0.62725E-01
 -0.54553E-01 -0.44968E-01 -0.35767E-01 -0.27671E-01 -0.21356E-01 -0.17493E-01
 -0.15727E-01 -0.14589E-01 -0.12863E-01 -0.10462E-01 -0.75813E-02 -0.36889E-02
 -0.71686E-02 -0.76040E-02 -0.79833E-02 -0.84044E-02 -0.82336E-02 -0.64963E-02
 -0.30182E-02  0.15201E-02  0.66304E-02  0.12347E-01  0.18368E-01  0.23736E-01
  0.27900E-01  0.31486E-01  0.35285E-01  0.38845E-01  0.40861E-01  0.40856E-01
  0.39629E-01  0.37764E-01  0.34362E-01  0.27777E-01  0.17339E-01  0.40286E-02
 -0.10205E-01 -0.23242E-01 -0.33084E-01 -0.38171E-01 -0.38062E-01 -0.33768E-01
 -0.27168E-01 -0.19974E-01 -0.13238E-01 -0.75908E-02 -0.35056E-02 -0.11823E-02
 -0.48405E-03 -0.13538E-02 -0.42363E-02 -0.97679E-02 -0.18019E-01 -0.28337E-01
 -0.39932E-01 -0.52076E-01 -0.63401E-01 -0.71539E-01 -0.74327E-01 -0.71508E-01
 -0.64779E-01 -0.56142E-01 -0.46775E-01 -0.37574E-01 -0.29792E-01 -0.24307E-01
 -0.20597E-01 -0.17234E-01 -0.13342E-01 -0.89150E-02 -0.38476E-02  0.24671E-02
 -0.61600E-02 -0.55023E-02 -0.51391E-02 -0.51570E-02 -0.48744E-02 -0.35654E-02
 -0.11119E-02  0.24181E-02  0.71890E-02  0.13029E-01  0.19015E-01  0.24391E-01
  0.29560E-01  0.35285E-01  0.41093E-01  0.45453E-01  0.47694E-01  0.48751E-01
  0.49423E-01  0.48590E-01  0.43910E-01  0.34047E-01  0.19696E-01  0.28416E-02
 -0.14125E-01 -0.28571E-01 -0.37949E-01 -0.40850E-01 -0.37797E-01 -0.30799E-01
 -0.22103E-01 -0.13367E-01 -0.56464E-02  0.36570E-03  0.43428E-02  0.63869E-02
  0.67472E-02  0.53036E-02  0.14274E-02 -0.54781E-02 -0.15359E-01 -0.27580E-01
 -0.41424E-01 -0.55981E-01 -0.69416E-01 -0.78978E-01 -0.82514E-01 -0.80005E-01
 -0.73245E-01 -0.64176E-01 -0.54029E-01 -0.43898E-01 -0.35110E-01 -0.28413E-01
 -0.23224E-01 -0.18253E-01 -0.12654E-01 -0.61877E-02  0.13384E-02  0.10097E-01
 -0.34159E-02 -0.21045E-02 -0.15978E-02 -0.18639E-02 -0.23112E-02 -0.23569E-02
 -0.14785E-02  0.99931E-03  0.54070E-02  0.11127E-01  0.17241E-01  0.23712E-01
  0.31067E-01  0.38845E-01  0.45453E-01  0.50043E-01  0.53540E-01  0.56876E-01
  0.58858E-01  0.56800E-01  0.49025E-01  0.35847E-01  0.18511E-01 -0.13626E-02
 -0.20856E-01 -0.35639E-01 -0.42150E-01 -0.40009E-01 -0.31897E-01 -0.21263E-01
 -0.10486E-01 -0.80703E-03  0.69947E-02  0.12395E-01  0.15356E-01  0.16295E-01
  0.15592E-01  0.13045E-01  0.79059E-02 -0.47059E-03 -0.12075E-01 -0.26446E-01
 -0.43056E-01 -0.60821E-01 -0.77112E-01 -0.88159E-01 -0.91356E-01 -0.87202E-01
 -0.78546E-01 -0.68127E-01 -0.57316E-01 -0.46860E-01 -0.37662E-01 -0.30253E-01
 -0.24051E-01 -0.17764E-01 -0.10422E-01 -0.17613E-02  0.80997E-02  0.18873E-01
  0.66189E-03  0.20468E-02  0.21119E-02  0.91645E-03 -0.11412E-02 -0.33024E-02
 -0.42982E-02 -0.29105E-02  0.10499E-02  0.68528E-02  0.14039E-01  0.22684E-01
  0.32181E-01  0.40861E-01  0.47694E-01  0.53540E-01  0.59444E-01  0.64197E-01
  0.64981E-01  0.60250E-01  0.50434E-01  0.35747E-01  0.15538E-01 -0.86717E-02
 -0.30826E-01 -0.43296E-01 -0.42722E-01 -0.32178E-01 -0.17700E-01 -0.37483E-02
  0.80170E-02  0.17228E-01  0.23574E-01  0.26932E-01  0.27760E-01  0.26842E-01
  0.24598E-01  0.20661E-01  0.14173E-01  0.45111E-02 -0.84684E-02 -0.24906E-01
 -0.44884E-01 -0.66899E-01 -0.86554E-01 -0.98210E-01 -0.99029E-01 -0.91173E-01
 -0.79549E-01 -0.67778E-01 -0.56802E-01 -0.46548E-01 -0.37418E-01 -0.29761E-01
 -0.22880E-01 -0.15402E-01 -0.64297E-02  0.40464E-02  0.15659E-01  0.28093E-01
  0.53554E-02  0.62093E-02  0.52418E-02  0.22408E-02 -0.24557E-02 -0.73681E-02
 -0.10282E-01 -0.97161E-02 -0.56807E-02  0.11947E-02  0.10497E-01  0.21365E-01
  0.31945E-01  0.40856E-01  0.48751E-01  0.56876E-01  0.64197E-01  0.67764E-01
  0.66235E-01  0.60822E-01  0.51522E-01  0.34884E-01  0.87256E-02 -0.21253E-01
 -0.42768E-01 -0.46539E-01 -0.33674E-01 -0.13142E-01  0.64576E-02  0.21586E-01
  0.32299E-01  0.39147E-01  0.42318E-01  0.42340E-01  0.40259E-01  0.36995E-01
  0.32766E-01  0.27126E-01  0.19464E-01  0.93021E-02 -0.41574E-02 -0.22408E-01
 -0.46182E-01 -0.72566E-01 -0.94395E-01 -0.10442E+00 -0.10095E+00 -0.88901E-01
 -0.75035E-01 -0.62907E-01 -0.52469E-01 -0.42945E-01 -0.34450E-01 -0.27088E-01
 -0.19952E-01 -0.11717E-01 -0.17392E-02  0.98701E-02  0.22885E-01  0.37065E-01
  0.96772E-02  0.95276E-02  0.67023E-02  0.58792E-03 -0.78550E-02 -0.15731E-01
 -0.19935E-01 -0.19141E-01 -0.13767E-01 -0.46911E-02  0.69390E-02  0.19126E-01
  0.29989E-01  0.39629E-01  0.49423E-01  0.58858E-01  0.64981E-01  0.66235E-01
  0.64613E-01  0.61215E-01  0.51201E-01  0.27845E-01 -0.66318E-02 -0.37544E-01
 -0.48469E-01 -0.35243E-01 -0.79257E-02  0.19716E-01  0.40266E-01  0.53357E-01
  0.60740E-01  0.63359E-01  0.61923E-01  0.57731E-01  0.52125E-01  0.45789E-01
  0.38856E-01  0.31354E-01  0.23268E-01  0.13879E-01  0.96195E-03 -0.18453E-01
 -0.44805E-01 -0.72869E-01 -0.93335E-01 -0.99349E-01 -0.91832E-01 -0.77892E-01
 -0.64364E-01 -0.53593E-01 -0.44679E-01 -0.36687E-01 -0.29599E-01 -0.23188E-01
 -0.16422E-01 -0.81645E-02  0.21309E-02  0.14539E-01  0.28924E-01  0.44528E-01
  0.13147E-01  0.11412E-01  0.53105E-02 -0.54908E-02 -0.18233E-01 -0.28251E-01
 -0.32179E-01 -0.29558E-01 -0.21657E-01 -0.10093E-01  0.30856E-02  0.15645E-01
  0.26843E-01  0.37764E-01  0.48590E-01  0.56800E-01  0.60250E-01  0.60822E-01
  0.61215E-01  0.57685E-01  0.40838E-01  0.78580E-02 -0.28063E-01 -0.45459E-01
 -0.33224E-01  0.39096E-03  0.37291E-01  0.64890E-01  0.81250E-01  0.89392E-01
  0.91390E-01  0.88072E-01  0.80834E-01  0.71536E-01  0.61357E-01  0.50818E-01
  0.40604E-01  0.31645E-01  0.24162E-01  0.16535E-01  0.52254E-02 -0.13026E-01
 -0.37417E-01 -0.61438E-01 -0.76504E-01 -0.78422E-01 -0.70238E-01 -0.58696E-01
 -0.48622E-01 -0.40932E-01 -0.34645E-01 -0.29100E-01 -0.24125E-01 -0.19245E-01
 -0.13482E-01 -0.57944E-02  0.44985E-02  0.17479E-01  0.32455E-01  0.47640E-01
  0.16099E-01  0.11537E-01  0.34710E-03 -0.16011E-01 -0.32152E-01 -0.42303E-01
 -0.44053E-01 -0.38505E-01 -0.27990E-01 -0.14806E-01 -0.12410E-02  0.11234E-01
  0.22918E-01  0.34362E-01  0.43910E-01  0.49025E-01  0.50434E-01  0.51522E-01
  0.51201E-01  0.40838E-01  0.14035E-01 -0.20193E-01 -0.39403E-01 -0.26761E-01
  0.13312E-01  0.60291E-01  0.96129E-01  0.11624E+00  0.12494E+00  0.12615E+00
  0.12084E+00  0.10993E+00  0.95627E-01  0.79907E-01  0.63743E-01  0.48153E-01
  0.34793E-01  0.24989E-01  0.18467E-01  0.13043E-01  0.54881E-02 -0.64253E-02
 -0.21678E-01 -0.35851E-01 -0.44148E-01 -0.45034E-01 -0.40855E-01 -0.35229E-01
 -0.30381E-01 -0.26719E-01 -0.23843E-01 -0.21336E-01 -0.18856E-01 -0.15901E-01
 -0.11575E-01 -0.47485E-02  0.51865E-02  0.17661E-01  0.31074E-01  0.43165E-01
  0.18768E-01  0.96103E-02 -0.76646E-02 -0.28567E-01 -0.45637E-01 -0.53636E-01
 -0.52214E-01 -0.44087E-01 -0.32194E-01 -0.18866E-01 -0.58604E-02  0.62424E-02
  0.17732E-01  0.27777E-01  0.34047E-01  0.35847E-01  0.35747E-01  0.34884E-01
  0.27845E-01  0.78580E-02 -0.20193E-01 -0.36274E-01 -0.20635E-01  0.26710E-01
  0.84936E-01  0.13092E+00  0.15608E+00  0.16536E+00  0.16547E+00  0.15836E+00
  0.14395E+00  0.12396E+00  0.10119E+00  0.77557E-01  0.54478E-01  0.33977E-01
  0.18060E-01  0.74198E-02  0.15145E-02 -0.58099E-03 -0.10527E-03  0.10363E-02
  0.82544E-03 -0.16196E-02 -0.55183E-02 -0.91937E-02 -0.11376E-01 -0.12019E-01
 -0.12073E-01 -0.12452E-01 -0.13236E-01 -0.13928E-01 -0.14122E-01 -0.13399E-01
 -0.10776E-01 -0.51403E-02  0.34491E-02  0.13482E-01  0.23180E-01  0.31092E-01
  0.20394E-01  0.56659E-02 -0.16549E-01 -0.39062E-01 -0.54228E-01 -0.58939E-01
 -0.55028E-01 -0.45993E-01 -0.34514E-01 -0.22328E-01 -0.10500E-01  0.61571E-03
  0.10473E-01  0.17339E-01  0.19696E-01  0.18511E-01  0.15538E-01  0.87256E-02
 -0.66318E-02 -0.28063E-01 -0.39403E-01 -0.20635E-01  0.32566E-01  0.10164E+00
  0.15993E+00  0.19334E+00  0.20528E+00  0.20513E+00  0.19711E+00  0.18056E+00
  0.15569E+00  0.12533E+00  0.92680E-01  0.60240E-01  0.30625E-01  0.63597E-02
 -0.11511E-01 -0.23113E-01 -0.27665E-01 -0.23188E-01 -0.95052E-02  0.88695E-02
  0.24128E-01  0.30293E-01  0.27245E-01  0.19806E-01  0.13051E-01  0.85991E-02
  0.50641E-02  0.10413E-02 -0.33136E-02 -0.72296E-02 -0.10342E-01 -0.12132E-01
 -0.11421E-01 -0.75339E-02 -0.15147E-02  0.48603E-02  0.10878E-01  0.16452E-01
  0.19876E-01  0.70668E-03 -0.23289E-01 -0.44069E-01 -0.55753E-01 -0.57788E-01
 -0.53227E-01 -0.45190E-01 -0.35466E-01 -0.25115E-01 -0.14963E-01 -0.58072E-02
  0.10476E-02  0.40286E-02  0.28416E-02 -0.13626E-02 -0.86717E-02 -0.21253E-01
 -0.37544E-01 -0.45459E-01 -0.26761E-01  0.26710E-01  0.10164E+00  0.17141E+00
  0.21653E+00  0.23571E+00  0.23856E+00  0.23200E+00  0.21602E+00  0.18897E+00
  0.15236E+00  0.11021E+00  0.66823E-01  0.26352E-01 -0.75951E-02 -0.33469E-01
 -0.51883E-01 -0.62655E-01 -0.62357E-01 -0.46888E-01 -0.17581E-01  0.16078E-01
  0.41380E-01  0.51101E-01  0.47714E-01  0.39328E-01  0.32062E-01  0.26540E-01
  0.20594E-01  0.13287E-01  0.55211E-02 -0.17589E-02 -0.80891E-02 -0.12504E-01
 -0.13759E-01 -0.11977E-01 -0.87766E-02 -0.51381E-02 -0.34183E-03  0.59525E-02
  0.17246E-01 -0.34488E-02 -0.25784E-01 -0.42817E-01 -0.51190E-01 -0.52121E-01
 -0.48596E-01 -0.42632E-01 -0.35124E-01 -0.26877E-01 -0.19001E-01 -0.12803E-01
 -0.96274E-02 -0.10205E-01 -0.14125E-01 -0.20856E-01 -0.30826E-01 -0.42768E-01
 -0.48469E-01 -0.33224E-01  0.13312E-01  0.84936E-01  0.15993E+00  0.21653E+00
  0.24722E+00  0.25803E+00  0.25679E+00  0.24497E+00  0.21980E+00  0.18038E+00
  0.13012E+00  0.75174E-01  0.22367E-01 -0.22457E-01 -0.56399E-01 -0.80191E-01
 -0.95461E-01 -0.10059E+00 -0.90411E-01 -0.61822E-01 -0.20081E-01  0.21463E-01
  0.49549E-01  0.59834E-01  0.57980E-01  0.52564E-01  0.47686E-01  0.42226E-01
  0.34247E-01  0.23989E-01  0.12906E-01  0.20417E-02 -0.75736E-02 -0.14309E-01
 -0.17177E-01 -0.17063E-01 -0.15414E-01 -0.12076E-01 -0.58893E-02  0.24833E-02
  0.13978E-01 -0.52899E-02 -0.23901E-01 -0.36878E-01 -0.42967E-01 -0.44027E-01
 -0.42179E-01 -0.38328E-01 -0.32954E-01 -0.27105E-01 -0.22258E-01 -0.19696E-01
 -0.20078E-01 -0.23242E-01 -0.28571E-01 -0.35639E-01 -0.43296E-01 -0.46539E-01
 -0.35243E-01  0.39097E-03  0.60291E-01  0.13092E+00  0.19334E+00  0.23571E+00
  0.25803E+00  0.26583E+00  0.26148E+00  0.24220E+00  0.20459E+00  0.14972E+00
  0.84374E-01  0.18613E-01 -0.38095E-01 -0.80441E-01 -0.10842E+00 -0.12493E+00
 -0.13135E+00 -0.12515E+00 -0.10235E+00 -0.63408E-01 -0.16717E-01  0.24607E-01
  0.50959E-01  0.61936E-01  0.64049E-01  0.63391E-01  0.61177E-01  0.55601E-01
  0.45812E-01  0.32906E-01  0.18451E-01  0.39594E-02 -0.84519E-02 -0.16665E-01
 -0.20293E-01 -0.20679E-01 -0.18723E-01 -0.13814E-01 -0.56696E-02  0.36444E-02
  0.11774E-01 -0.44172E-02 -0.18773E-01 -0.28202E-01 -0.32803E-01 -0.34316E-01
 -0.33855E-01 -0.31685E-01 -0.28442E-01 -0.25551E-01 -0.24400E-01 -0.25549E-01
 -0.28691E-01 -0.33084E-01 -0.37949E-01 -0.42150E-01 -0.42722E-01 -0.33674E-01
 -0.79256E-02  0.37291E-01  0.96129E-01  0.15608E+00  0.20528E+00  0.23856E+00
  0.25679E+00  0.26148E+00  0.25045E+00  0.21884E+00  0.16435E+00  0.92103E-01
  0.14460E-01 -0.54506E-01 -0.10574E+00 -0.13784E+00 -0.15426E+00 -0.15847E+00
 -0.15123E+00 -0.13118E+00 -0.97879E-01 -0.54860E-01 -0.10305E-01  0.26457E-01
  0.50434E-01  0.63258E-01  0.69799E-01  0.72970E-01  0.72248E-01  0.66201E-01
  0.54790E-01  0.39236E-01  0.21347E-01  0.37945E-02 -0.10186E-01 -0.18621E-01
 -0.21960E-01 -0.21698E-01 -0.18364E-01 -0.11784E-01 -0.29559E-02  0.54952E-02
  0.11434E-01 -0.12025E-02 -0.11473E-01 -0.17896E-01 -0.21335E-01 -0.23044E-01
 -0.23405E-01 -0.22663E-01 -0.21886E-01 -0.22504E-01 -0.25143E-01 -0.29301E-01
 -0.33963E-01 -0.38171E-01 -0.40850E-01 -0.40009E-01 -0.32178E-01 -0.13142E-01
  0.19716E-01  0.64890E-01  0.11624E+00  0.16536E+00  0.20513E+00  0.23200E+00
  0.24497E+00  0.24220E+00  0.21884E+00  0.16978E+00  0.96381E-01  0.10531E-01
 -0.69732E-01 -0.13024E+00 -0.16706E+00 -0.18401E+00 -0.18601E+00 -0.17558E+00
 -0.15390E+00 -0.12262E+00 -0.84335E-01 -0.42873E-01 -0.35120E-02  0.28554E-01
  0.51111E-01  0.65745E-01  0.75161E-01  0.80215E-01  0.79848E-01  0.72998E-01
  0.59725E-01  0.41321E-01  0.20558E-01  0.15118E-02 -0.12232E-01 -0.19629E-01
 -0.21936E-01 -0.20550E-01 -0.15932E-01 -0.86646E-02 -0.46820E-03  0.64599E-02
  0.12885E-01  0.38426E-02 -0.27464E-02 -0.67230E-02 -0.91651E-02 -0.10735E-01
 -0.11587E-01 -0.12390E-01 -0.14443E-01 -0.18548E-01 -0.24205E-01 -0.30096E-01
 -0.35028E-01 -0.38062E-01 -0.37797E-01 -0.31897E-01 -0.17700E-01  0.64576E-02
  0.40266E-01  0.81250E-01  0.12494E+00  0.16547E+00  0.19711E+00  0.21602E+00
  0.21980E+00  0.20459E+00  0.16435E+00  0.96381E-01  0.88337E-02 -0.79353E-01
 -0.14895E+00 -0.19155E+00 -0.21037E+00 -0.21202E+00 -0.20017E+00 -0.17654E+00
 -0.14427E+00 -0.10757E+00 -0.69439E-01 -0.31771E-01  0.28625E-02  0.31452E-01
  0.52758E-01  0.67891E-01  0.78222E-01  0.83567E-01  0.82598E-01  0.74244E-01
  0.58657E-01  0.37881E-01  0.16040E-01 -0.21337E-02 -0.13893E-01 -0.19507E-01
 -0.20601E-01 -0.18214E-01 -0.12878E-01 -0.57298E-02  0.14679E-02  0.72210E-02
  0.15691E-01  0.10017E-01  0.63647E-02  0.41467E-02  0.25675E-02  0.13206E-02
 -0.52149E-04 -0.26450E-02 -0.74361E-02 -0.14207E-01 -0.21553E-01 -0.27912E-01
 -0.32279E-01 -0.33768E-01 -0.30799E-01 -0.21263E-01 -0.37483E-02  0.21586E-01
  0.53357E-01  0.89392E-01  0.12615E+00  0.15836E+00  0.18056E+00  0.18897E+00
  0.18038E+00  0.14972E+00  0.92103E-01  0.10531E-01 -0.79353E-01 -0.15605E+00
 -0.20571E+00 -0.22833E+00 -0.23144E+00 -0.22055E+00 -0.19756E+00 -0.16515E+00
 -0.12846E+00 -0.91738E-01 -0.56191E-01 -0.22089E-01  0.87552E-02  0.34048E-01
  0.53307E-01  0.67611E-01  0.77450E-01  0.81814E-01  0.79147E-01  0.68626E-01
  0.51114E-01  0.29800E-01  0.95330E-02 -0.56183E-02 -0.14494E-01 -0.18287E-01
 -0.18328E-01 -0.15177E-01 -0.95346E-02 -0.28337E-02  0.34353E-02  0.82861E-02
  0.19152E-01  0.16158E-01  0.14474E-01  0.13471E-01  0.12694E-01  0.11687E-01
  0.95199E-02  0.51250E-02 -0.17299E-02 -0.99703E-02 -0.17822E-01 -0.23844E-01
 -0.27243E-01 -0.27168E-01 -0.22103E-01 -0.10486E-01  0.80170E-02  0.32299E-01
  0.60740E-01  0.91390E-01  0.12084E+00  0.14395E+00  0.15569E+00  0.15236E+00
  0.13012E+00  0.84374E-01  0.14460E-01 -0.69732E-01 -0.14895E+00 -0.20571E+00
 -0.23465E+00 -0.24129E+00 -0.23266E+00 -0.21200E+00 -0.18155E+00 -0.14597E+00
 -0.11030E+00 -0.76478E-01 -0.43993E-01 -0.13354E-01  0.13293E-01  0.34620E-01
  0.51242E-01  0.63984E-01  0.72230E-01  0.74412E-01  0.69352E-01  0.57063E-01
  0.39352E-01  0.20029E-01  0.34948E-02 -0.77375E-02 -0.13881E-01 -0.16201E-01
 -0.15321E-01 -0.11559E-01 -0.59547E-02 -0.13445E-04  0.52097E-02  0.91066E-02
  0.22241E-01  0.21000E-01  0.20593E-01  0.20590E-01  0.20449E-01  0.19303E-01
  0.16115E-01  0.10302E-01  0.22903E-02 -0.64620E-02 -0.14126E-01 -0.19376E-01
 -0.21563E-01 -0.19974E-01 -0.13367E-01 -0.80704E-03  0.17228E-01  0.39147E-01
  0.63359E-01  0.88072E-01  0.10993E+00  0.12396E+00  0.12533E+00  0.11021E+00
  0.75174E-01  0.18613E-01 -0.54506E-01 -0.13024E+00 -0.19155E+00 -0.22833E+00
 -0.24129E+00 -0.23641E+00 -0.21843E+00 -0.19050E+00 -0.15708E+00 -0.12330E+00
 -0.91630E-01 -0.61473E-01 -0.32481E-01 -0.63657E-02  0.15159E-01  0.32394E-01
  0.46449E-01  0.57059E-01  0.62692E-01  0.62139E-01  0.55222E-01  0.42756E-01
  0.26960E-01  0.11398E-01 -0.73477E-03 -0.84427E-02 -0.12510E-01 -0.13633E-01
 -0.11894E-01 -0.78180E-02 -0.27785E-02  0.20121E-02  0.61085E-02  0.91842E-02
  0.23876E-01  0.23757E-01  0.24392E-01  0.25206E-01  0.25284E-01  0.23637E-01
  0.19584E-01  0.12992E-01  0.45430E-02 -0.41563E-02 -0.11181E-01 -0.15303E-01
 -0.16143E-01 -0.13238E-01 -0.56464E-02  0.69947E-02  0.23574E-01  0.42318E-01
  0.61923E-01  0.80834E-01  0.95627E-01  0.10119E+00  0.92680E-01  0.66823E-01
  0.22367E-01 -0.38095E-01 -0.10574E+00 -0.16706E+00 -0.21037E+00 -0.23144E+00
 -0.23266E+00 -0.21843E+00 -0.19303E+00 -0.16166E+00 -0.12992E+00 -0.10079E+00
 -0.73636E-01 -0.47313E-01 -0.22927E-01 -0.24577E-02  0.14007E-01  0.27877E-01
  0.39437E-01  0.47219E-01  0.49867E-01  0.47288E-01  0.40039E-01  0.29056E-01
  0.16396E-01  0.49702E-02 -0.32843E-02 -0.83510E-02 -0.10895E-01 -0.10979E-01
 -0.86210E-02 -0.47786E-02 -0.78706E-03  0.28145E-02  0.61046E-02  0.87273E-02
  0.23289E-01  0.24084E-01  0.25612E-01  0.26905E-01  0.26912E-01  0.24923E-01
  0.20548E-01  0.13731E-01  0.52807E-02 -0.28989E-02 -0.88118E-02 -0.11608E-01
 -0.11319E-01 -0.75908E-02  0.36570E-03  0.12395E-01  0.26932E-01  0.42340E-01
  0.57731E-01  0.71536E-01  0.79907E-01  0.77557E-01  0.60240E-01  0.26352E-01
 -0.22457E-01 -0.80441E-01 -0.13784E+00 -0.18401E+00 -0.21202E+00 -0.22055E+00
 -0.21200E+00 -0.19050E+00 -0.16166E+00 -0.13173E+00 -0.10468E+00 -0.80450E-01
 -0.57307E-01 -0.35414E-01 -0.16686E-01 -0.17839E-02  0.10716E-01  0.21831E-01
  0.30518E-01  0.35206E-01  0.35688E-01  0.32634E-01  0.26421E-01  0.17692E-01
  0.83457E-02  0.62860E-03 -0.46116E-02 -0.78274E-02 -0.92482E-02 -0.85658E-02
 -0.60744E-02 -0.29470E-02 -0.25043E-04  0.28125E-02  0.56978E-02  0.79530E-02
  0.20120E-01  0.21709E-01  0.23919E-01  0.25631E-01  0.25952E-01  0.24261E-01
  0.20011E-01  0.13176E-01  0.50484E-02 -0.21011E-02 -0.66254E-02 -0.83534E-02
 -0.75089E-02 -0.35056E-02  0.43428E-02  0.15356E-01  0.27760E-01  0.40259E-01
  0.52125E-01  0.61357E-01  0.63743E-01  0.54478E-01  0.30625E-01 -0.75951E-02
 -0.56399E-01 -0.10842E+00 -0.15426E+00 -0.18601E+00 -0.20017E+00 -0.19756E+00
 -0.18155E+00 -0.15708E+00 -0.12992E+00 -0.10468E+00 -0.82583E-01 -0.62318E-01
 -0.43263E-01 -0.26723E-01 -0.13732E-01 -0.32703E-02  0.61933E-02  0.14426E-01
  0.19991E-01  0.22402E-01  0.22343E-01  0.20128E-01  0.15500E-01  0.91292E-02
  0.29122E-02 -0.17270E-02 -0.48672E-02 -0.69600E-02 -0.76824E-02 -0.66493E-02
 -0.44672E-02 -0.21503E-02  0.72822E-04  0.25243E-02  0.49598E-02  0.65523E-02
  0.14355E-01  0.16611E-01  0.19656E-01  0.22454E-01  0.23913E-01  0.22885E-01
  0.18628E-01  0.11726E-01  0.42516E-02 -0.15820E-02 -0.49612E-02 -0.62165E-02
 -0.52623E-02 -0.11823E-02  0.63869E-02  0.16295E-01  0.26842E-01  0.36995E-01
  0.45789E-01  0.50818E-01  0.48153E-01  0.33977E-01  0.63597E-02 -0.33469E-01
 -0.80191E-01 -0.12493E+00 -0.15847E+00 -0.17558E+00 -0.17654E+00 -0.16515E+00
 -0.14597E+00 -0.12330E+00 -0.10079E+00 -0.80450E-01 -0.62318E-01 -0.45961E-01
 -0.31968E-01 -0.21169E-01 -0.13007E-01 -0.59492E-02  0.53779E-03  0.56238E-02
  0.87907E-02  0.10613E-01  0.11455E-01  0.10624E-01  0.76725E-02  0.36771E-02
  0.22315E-03 -0.23008E-02 -0.44248E-02 -0.60695E-02 -0.64484E-02 -0.53970E-02
 -0.37207E-02 -0.20465E-02 -0.24094E-03  0.17581E-02  0.33880E-02  0.42048E-02
  0.62883E-02  0.94091E-02  0.14096E-01  0.18927E-01  0.21815E-01  0.20985E-01
  0.16240E-01  0.93352E-02  0.27831E-02 -0.19111E-02 -0.47179E-02 -0.58670E-02
 -0.47479E-02 -0.48405E-03  0.67472E-02  0.15592E-01  0.24598E-01  0.32766E-01
  0.38856E-01  0.40604E-01  0.34793E-01  0.18060E-01 -0.11511E-01 -0.51883E-01
 -0.95461E-01 -0.13135E+00 -0.15123E+00 -0.15390E+00 -0.14427E+00 -0.12846E+00
 -0.11030E+00 -0.91630E-01 -0.73636E-01 -0.57307E-01 -0.43263E-01 -0.31968E-01
 -0.23700E-01 -0.17971E-01 -0.13571E-01 -0.96756E-02 -0.64011E-02 -0.38656E-02
 -0.14145E-02  0.14349E-02  0.38377E-02  0.44483E-02  0.32140E-02  0.13702E-02
 -0.28911E-03 -0.20725E-02 -0.41339E-02 -0.56462E-02 -0.58219E-02 -0.49742E-02
 -0.38892E-02 -0.27460E-02 -0.13754E-02 -0.83031E-04  0.65775E-03  0.10954E-02