       #
       # Generated by the Wannier90 code http://www.wannier.org
       # On 28Aug2024 at 16:10:53 
       #
CRYSTAL
PRIMVEC
   2.7382345   2.7382345   0.0000000
   0.0000000   2.7382345   2.7382345
   2.7382345   0.0000000   2.7382345
CONVVEC
   2.7382345   2.7382345   0.0000000
   0.0000000   2.7382345   2.7382345
   2.7382345   0.0000000   2.7382345
PRIMCOORD
     2  1
Si      0.0000000   0.0000000   0.0000000
Si      1.3691172   1.3691172   1.3691172


BEGIN_BLOCK_DATAGRID_3D
3D_field
BEGIN_DATAGRID_3D_UNKNOWN
    40    40    40
   -5.750292   -5.750292   -5.750292
   5.3395573   5.3395573   0.0000000
   0.0000000   5.3395573   5.3395573
   5.3395573   0.0000000   5.3395573
  0.36729E-01  0.40853E-01  0.42270E-01  0.40853E-01  0.36729E-01  0.30291E-01
  0.22158E-01  0.13079E-01  0.39313E-02 -0.42171E-02 -0.10359E-01 -0.14103E-01
 -0.15845E-01 -0.16085E-01 -0.14674E-01 -0.11238E-01 -0.64331E-02 -0.21219E-02
  0.32878E-03  0.17012E-02  0.40986E-02  0.82502E-02  0.12192E-01  0.13034E-01
  0.97131E-02  0.36444E-02 -0.29559E-02 -0.86646E-02 -0.12878E-01 -0.15177E-01
 -0.15321E-01 -0.13633E-01 -0.10895E-01 -0.78274E-02 -0.48672E-02 -0.23008E-02
 -0.28911E-03  0.12128E-02  0.22694E-02  0.27071E-02  0.25456E-01  0.27223E-01
  0.27223E-01  0.25456E-01  0.22136E-01  0.17391E-01  0.11202E-01  0.38470E-02
 -0.36432E-02 -0.97721E-02 -0.13523E-01 -0.14932E-01 -0.14540E-01 -0.12414E-01
 -0.81009E-02 -0.16917E-02  0.54869E-02  0.11727E-01  0.16382E-01  0.19930E-01
  0.22456E-01  0.22665E-01  0.18981E-01  0.11531E-01  0.24833E-02 -0.56696E-02
 -0.11784E-01 -0.15932E-01 -0.18214E-01 -0.18328E-01 -0.16201E-01 -0.12510E-01
 -0.83510E-02 -0.46116E-02 -0.17270E-02  0.22315E-03  0.13702E-02  0.18344E-02
  0.14991E-02  0.18922E-03  0.12091E-01  0.12512E-01  0.12091E-01  0.10952E-01
  0.91248E-02  0.61485E-02  0.15323E-02 -0.42846E-02 -0.97698E-02 -0.13352E-01
 -0.14510E-01 -0.13624E-01 -0.10927E-01 -0.60465E-02  0.12867E-02  0.10440E-01
  0.20109E-01  0.29135E-01  0.36574E-01  0.40936E-01  0.40078E-01  0.32693E-01
  0.20078E-01  0.59525E-02 -0.58893E-02 -0.13814E-01 -0.18364E-01 -0.20550E-01
 -0.20601E-01 -0.18287E-01 -0.13881E-01 -0.84427E-02 -0.32843E-02  0.62860E-03
  0.29122E-02  0.36771E-02  0.32140E-02  0.16196E-02 -0.11923E-02 -0.48985E-02
  0.77857E-03  0.77857E-03  0.63884E-03  0.46097E-03 -0.16873E-03 -0.21566E-02
 -0.58319E-02 -0.10146E-01 -0.13337E-01 -0.14333E-01 -0.13157E-01 -0.10073E-01
 -0.48460E-02  0.28807E-02  0.12853E-01  0.24254E-01  0.36208E-01  0.47534E-01
  0.55838E-01  0.57632E-01  0.50423E-01  0.35179E-01  0.16452E-01 -0.34182E-03
 -0.12076E-01 -0.18723E-01 -0.21698E-01 -0.21936E-01 -0.19507E-01 -0.14494E-01
 -0.77375E-02 -0.73477E-03  0.49702E-02  0.83457E-02  0.91292E-02  0.76726E-02
  0.44483E-02 -0.28554E-03 -0.61468E-02 -0.11935E-01 -0.61573E-02 -0.61069E-02
 -0.58413E-02 -0.54607E-02 -0.57466E-02 -0.75118E-02 -0.10447E-01 -0.13073E-01
 -0.13986E-01 -0.12774E-01 -0.95896E-02 -0.43015E-02  0.34267E-02  0.13442E-01
  0.25056E-01  0.37640E-01  0.50516E-01  0.61744E-01  0.67566E-01  0.64182E-01
  0.50829E-01  0.31092E-01  0.10878E-01 -0.51381E-02 -0.15414E-01 -0.20679E-01
 -0.21960E-01 -0.19629E-01 -0.13893E-01 -0.56183E-02  0.34948E-02  0.11398E-01
  0.16396E-01  0.17692E-01  0.15500E-01  0.10624E-01  0.38377E-02 -0.42125E-02
 -0.12433E-01 -0.18861E-01 -0.86149E-02 -0.85157E-02 -0.81665E-02 -0.78845E-02
 -0.84564E-02 -0.10171E-01 -0.12161E-01 -0.13049E-01 -0.12054E-01 -0.91137E-02
 -0.41723E-02  0.30567E-02  0.12513E-01  0.23500E-01  0.35267E-01  0.47393E-01
  0.58908E-01  0.67109E-01  0.68162E-01  0.59714E-01  0.43165E-01  0.23180E-01
  0.48603E-02 -0.87766E-02 -0.17063E-01 -0.20293E-01 -0.18621E-01 -0.12232E-01
 -0.21337E-02  0.95330E-02  0.20029E-01  0.26960E-01  0.29056E-01  0.26421E-01
  0.20128E-01  0.11455E-01  0.14349E-02 -0.88685E-02 -0.17770E-01 -0.23056E-01
 -0.76905E-02 -0.77244E-02 -0.76415E-02 -0.78425E-02 -0.88030E-02 -0.10264E-01
 -0.11200E-01 -0.10656E-01 -0.82971E-02 -0.40953E-02  0.21017E-02  0.10329E-01
  0.20068E-01  0.30471E-01  0.40941E-01  0.50961E-01  0.59107E-01  0.62674E-01
  0.59011E-01  0.47640E-01  0.31074E-01  0.13482E-01 -0.15147E-02 -0.11977E-01
 -0.17177E-01 -0.16665E-01 -0.10186E-01  0.15118E-02  0.16040E-01  0.29800E-01
  0.39352E-01  0.42756E-01  0.40039E-01  0.32634E-01  0.22343E-01  0.10613E-01
 -0.14145E-02 -0.12332E-01 -0.20192E-01 -0.23083E-01 -0.44290E-02 -0.46680E-02
 -0.50030E-02 -0.57630E-02 -0.70090E-02 -0.81513E-02 -0.82983E-02 -0.68780E-02
 -0.37624E-02  0.10510E-02  0.75492E-02  0.15456E-01  0.24137E-01  0.32891E-01
  0.41130E-01  0.48028E-01  0.52062E-01  0.51292E-01  0.44528E-01  0.32455E-01
  0.17661E-01  0.34491E-02 -0.75339E-02 -0.13759E-01 -0.14309E-01 -0.84519E-02
  0.37945E-02  0.20558E-01  0.37881E-01  0.51114E-01  0.57063E-01  0.55222E-01
  0.47288E-01  0.35688E-01  0.22402E-01  0.87907E-02 -0.38656E-02 -0.13923E-01
 -0.19570E-01 -0.19570E-01  0.57016E-03  0.11174E-03 -0.73836E-03 -0.20970E-02
 -0.36532E-02 -0.47059E-02 -0.45859E-02 -0.29701E-02  0.17109E-03  0.47488E-02
  0.10571E-01  0.17266E-01  0.24287E-01  0.30995E-01  0.36641E-01  0.40280E-01
  0.40765E-01  0.37065E-01  0.28924E-01  0.17479E-01  0.51865E-02 -0.51403E-02
 -0.11421E-01 -0.12504E-01 -0.75736E-02  0.39594E-02  0.21347E-01  0.41321E-01
  0.58657E-01  0.68626E-01  0.69352E-01  0.62139E-01  0.49867E-01  0.35206E-01
  0.19991E-01  0.56238E-02 -0.64011E-02 -0.14484E-01 -0.17342E-01 -0.14484E-01
  0.66599E-02  0.58042E-02  0.42716E-02  0.22375E-02  0.23336E-03 -0.11255E-02
 -0.14004E-02 -0.36543E-03  0.20553E-02  0.57822E-02  0.10542E-01  0.15886E-01
  0.21222E-01  0.25843E-01  0.28996E-01  0.29968E-01  0.28093E-01  0.22885E-01
  0.14539E-01  0.44985E-02 -0.47485E-02 -0.10776E-01 -0.12132E-01 -0.80891E-02
  0.20417E-02  0.18451E-01  0.39236E-01  0.59725E-01  0.74244E-01  0.79147E-01
  0.74412E-01  0.62692E-01  0.47219E-01  0.30518E-01  0.14426E-01  0.53779E-03
 -0.96756E-02 -0.15081E-01 -0.15081E-01 -0.96756E-02  0.12805E-01  0.11281E-01
  0.89658E-02  0.62274E-02  0.35639E-02  0.13623E-02 -0.47344E-04 -0.25145E-03
  0.11013E-02  0.39745E-02  0.78637E-02  0.12038E-01  0.15790E-01  0.18509E-01
  0.19685E-01  0.18873E-01  0.15659E-01  0.98701E-02  0.21309E-02 -0.57944E-02
 -0.11575E-01 -0.13399E-01 -0.10342E-01 -0.17589E-02  0.12906E-01  0.32906E-01
  0.54790E-01  0.72998E-01  0.82598E-01  0.81814E-01  0.72230E-01  0.57059E-01
  0.39437E-01  0.21831E-01  0.61933E-02 -0.59492E-02 -0.13571E-01 -0.16159E-01
 -0.13571E-01 -0.59492E-02  0.18124E-01  0.15821E-01  0.12715E-01  0.91480E-02
  0.54173E-02  0.17566E-02 -0.12918E-02 -0.28305E-02 -0.22507E-02  0.15340E-03
  0.33894E-02  0.64914E-02  0.88908E-02  0.10226E-01  0.10097E-01  0.80997E-02
  0.40464E-02 -0.17392E-02 -0.81645E-02 -0.13482E-01 -0.15901E-01 -0.14122E-01
 -0.72296E-02  0.55211E-02  0.23989E-01  0.45812E-01  0.66201E-01  0.79848E-01
  0.83567E-01  0.77450E-01  0.63984E-01  0.46449E-01  0.27877E-01  0.10716E-01
 -0.32703E-02 -0.13007E-01 -0.17971E-01 -0.17971E-01 -0.13007E-01 -0.32703E-02
  0.22505E-01  0.19340E-01  0.15209E-01  0.10397E-01  0.50929E-02 -0.33723E-03
 -0.48412E-02 -0.70928E-02 -0.66681E-02 -0.44835E-02 -0.18909E-02  0.33343E-03
  0.19223E-02  0.24671E-02  0.13384E-02 -0.17613E-02 -0.64297E-02 -0.11717E-01
 -0.16422E-01 -0.19245E-01 -0.18856E-01 -0.13928E-01 -0.33136E-02  0.13287E-01
  0.34247E-01  0.55601E-01  0.72248E-01  0.80215E-01  0.78222E-01  0.67611E-01
  0.51242E-01  0.32394E-01  0.14007E-01 -0.17839E-02 -0.13732E-01 -0.21169E-01
 -0.23700E-01 -0.21169E-01 -0.13732E-01 -0.17838E-02  0.26087E-01  0.21611E-01
  0.15915E-01  0.94083E-02  0.23521E-02 -0.45101E-02 -0.96133E-02 -0.11660E-01
 -0.10925E-01 -0.89056E-02 -0.68082E-02 -0.49667E-02 -0.36889E-02 -0.38476E-02
 -0.61877E-02 -0.10422E-01 -0.15402E-01 -0.19952E-01 -0.23188E-01 -0.24125E-01
 -0.21336E-01 -0.13236E-01  0.10413E-02  0.20594E-01  0.42226E-01  0.61177E-01
  0.72970E-01  0.75161E-01  0.67891E-01  0.53307E-01  0.34620E-01  0.15159E-01
 -0.24577E-02 -0.16686E-01 -0.26723E-01 -0.31968E-01 -0.31968E-01 -0.26723E-01
 -0.16686E-01 -0.24577E-02  0.28261E-01  0.21876E-01  0.14319E-01  0.60696E-02
 -0.24810E-02 -0.10051E-01 -0.14751E-01 -0.15825E-01 -0.14439E-01 -0.12315E-01
 -0.10236E-01 -0.84027E-02 -0.75813E-02 -0.89150E-02 -0.12654E-01 -0.17764E-01
 -0.22880E-01 -0.27088E-01 -0.29599E-01 -0.29100E-01 -0.23843E-01 -0.12452E-01
  0.50641E-02  0.26540E-01  0.47686E-01  0.63391E-01  0.69799E-01  0.65745E-01
  0.52758E-01  0.34048E-01  0.13293E-01 -0.63657E-02 -0.22927E-01 -0.35414E-01
 -0.43263E-01 -0.45961E-01 -0.43263E-01 -0.35414E-01 -0.22927E-01 -0.63657E-02
  0.28040E-01  0.19856E-01  0.10736E-01  0.86340E-03 -0.89678E-02 -0.16587E-01
 -0.19988E-01 -0.19368E-01 -0.16775E-01 -0.13983E-01 -0.11606E-01 -0.10103E-01
 -0.10462E-01 -0.13342E-01 -0.18253E-01 -0.24051E-01 -0.29761E-01 -0.34450E-01
 -0.36687E-01 -0.34645E-01 -0.26719E-01 -0.12073E-01  0.85991E-02  0.32062E-01
  0.52564E-01  0.64049E-01  0.63258E-01  0.51111E-01  0.31452E-01  0.87552E-02
 -0.13354E-01 -0.32481E-01 -0.47313E-01 -0.57307E-01 -0.62318E-01 -0.62318E-01
 -0.57307E-01 -0.47313E-01 -0.32481E-01 -0.13354E-01  0.25680E-01  0.16591E-01
  0.60761E-02 -0.57703E-02 -0.16784E-01 -0.23565E-01 -0.24537E-01 -0.21338E-01
 -0.16932E-01 -0.13244E-01 -0.10996E-01 -0.10723E-01 -0.12863E-01 -0.17234E-01
 -0.23224E-01 -0.30253E-01 -0.37418E-01 -0.42945E-01 -0.44679E-01 -0.40932E-01
 -0.30381E-01 -0.12019E-01  0.13051E-01  0.39328E-01  0.57980E-01  0.61936E-01
  0.50434E-01  0.28554E-01  0.28625E-02 -0.22089E-01 -0.43993E-01 -0.61473E-01
 -0.73636E-01 -0.80450E-01 -0.82583E-01 -0.80450E-01 -0.73636E-01 -0.61473E-01
 -0.43993E-01 -0.22089E-01  0.22769E-01  0.13111E-01  0.46003E-03 -0.13662E-01
 -0.24741E-01 -0.28819E-01 -0.25959E-01 -0.19659E-01 -0.13594E-01 -0.97166E-02
 -0.86647E-02 -0.10447E-01 -0.14589E-01 -0.20597E-01 -0.28413E-01 -0.37662E-01
 -0.46548E-01 -0.52469E-01 -0.53593E-01 -0.48622E-01 -0.35229E-01 -0.11376E-01
  0.19806E-01  0.47714E-01  0.59834E-01  0.50959E-01  0.26457E-01 -0.35120E-02
 -0.31771E-01 -0.56191E-01 -0.76478E-01 -0.91630E-01 -0.10079E+00 -0.10468E+00
 -0.10468E+00 -0.10079E+00 -0.91630E-01 -0.76478E-01 -0.56191E-01 -0.31771E-01
  0.19652E-01  0.83151E-02 -0.69939E-02 -0.21667E-01 -0.29614E-01 -0.28504E-01
 -0.21214E-01 -0.12637E-01 -0.62915E-02 -0.36538E-02 -0.48726E-02 -0.92042E-02
 -0.15727E-01 -0.24307E-01 -0.35110E-01 -0.46860E-01 -0.56802E-01 -0.62907E-01
 -0.64364E-01 -0.58696E-01 -0.40855E-01 -0.91936E-02  0.27245E-01  0.51101E-01
  0.49549E-01  0.24607E-01 -0.10305E-01 -0.42873E-01 -0.69439E-01 -0.91738E-01
 -0.11030E+00 -0.12330E+00 -0.12992E+00 -0.13173E+00 -0.12992E+00 -0.12330E+00
 -0.11030E+00 -0.91738E-01 -0.69439E-01 -0.42873E-01  0.13504E-01 -0.37234E-03
 -0.16032E-01 -0.26462E-01 -0.27161E-01 -0.19721E-01 -0.94318E-02 -0.85213E-03
  0.38036E-02  0.38612E-02 -0.33516E-03 -0.76977E-02 -0.17493E-01 -0.29792E-01
 -0.43898E-01 -0.57316E-01 -0.67778E-01 -0.75035E-01 -0.77892E-01 -0.70238E-01
 -0.45034E-01 -0.55183E-02  0.30293E-01  0.41380E-01  0.21463E-01 -0.16717E-01
 -0.54860E-01 -0.84335E-01 -0.10757E+00 -0.12846E+00 -0.14597E+00 -0.15708E+00
 -0.16166E+00 -0.16166E+00 -0.15708E+00 -0.14597E+00 -0.12846E+00 -0.10757E+00
 -0.84335E-01 -0.54860E-01  0.79500E-03 -0.13226E-01 -0.23369E-01 -0.23956E-01
 -0.15504E-01 -0.35344E-02  0.66820E-02  0.12854E-01  0.14417E-01  0.11167E-01
  0.35523E-02 -0.74616E-02 -0.21356E-01 -0.37574E-01 -0.54029E-01 -0.68127E-01
 -0.79549E-01 -0.88901E-01 -0.91832E-01 -0.78422E-01 -0.44148E-01 -0.16196E-02
  0.24128E-01  0.16078E-01 -0.20081E-01 -0.63408E-01 -0.97879E-01 -0.12262E+00
 -0.14427E+00 -0.16515E+00 -0.18155E+00 -0.19050E+00 -0.19303E+00 -0.19050E+00
 -0.18155E+00 -0.16515E+00 -0.14427E+00 -0.12262E+00 -0.97879E-01 -0.63408E-01
 -0.17663E-01 -0.25858E-01 -0.24335E-01 -0.12878E-01  0.24754E-02  0.15165E-01
  0.22665E-01  0.25371E-01  0.23492E-01  0.16698E-01  0.53423E-02 -0.97179E-02
 -0.27671E-01 -0.46775E-01 -0.64176E-01 -0.78546E-01 -0.91173E-01 -0.10095E+00
 -0.99349E-01 -0.76504E-01 -0.35851E-01  0.82545E-03  0.88695E-02 -0.17581E-01
 -0.61822E-01 -0.10235E+00 -0.13118E+00 -0.15390E+00 -0.17654E+00 -0.19756E+00
 -0.21200E+00 -0.21843E+00 -0.21843E+00 -0.21200E+00 -0.19756E+00 -0.17654E+00
 -0.15390E+00 -0.13118E+00 -0.10235E+00 -0.61822E-01 -0.35289E-01 -0.31967E-01
 -0.17056E-01  0.33369E-02  0.20792E-01  0.31200E-01  0.35437E-01  0.35083E-01
  0.29936E-01  0.19456E-01  0.41937E-02 -0.14735E-01 -0.35767E-01 -0.56142E-01
 -0.73245E-01 -0.87202E-01 -0.99029E-01 -0.10442E+00 -0.93335E-01 -0.61438E-01
 -0.21678E-01  0.10363E-02 -0.95052E-02 -0.46888E-01 -0.90411E-01 -0.12515E+00
 -0.15123E+00 -0.17558E+00 -0.20017E+00 -0.22055E+00 -0.23266E+00 -0.23641E+00
 -0.23266E+00 -0.22055E+00 -0.20017E+00 -0.17558E+00 -0.15123E+00 -0.12515E+00
 -0.90411E-01 -0.46888E-01 -0.44426E-01 -0.28680E-01 -0.44496E-02  0.18918E-01
  0.34695E-01  0.42398E-01  0.44465E-01  0.41704E-01  0.33190E-01  0.18764E-01
 -0.34844E-03 -0.22412E-01 -0.44968E-01 -0.64779E-01 -0.80005E-01 -0.91356E-01
 -0.98210E-01 -0.94395E-01 -0.72869E-01 -0.37417E-01 -0.64253E-02 -0.10528E-03
 -0.23188E-01 -0.62357E-01 -0.10059E+00 -0.13135E+00 -0.15847E+00 -0.18601E+00
 -0.21202E+00 -0.23144E+00 -0.24129E+00 -0.24129E+00 -0.23144E+00 -0.21202E+00
 -0.18601E+00 -0.15847E+00 -0.13135E+00 -0.10059E+00 -0.62357E-01 -0.23188E-01
 -0.42342E-01 -0.18579E-01  0.83756E-02  0.30084E-01  0.43291E-01  0.49510E-01
  0.50284E-01  0.44897E-01  0.32426E-01  0.13807E-01 -0.87347E-02 -0.32596E-01
 -0.54553E-01 -0.71508E-01 -0.82514E-01 -0.88159E-01 -0.86554E-01 -0.72566E-01
 -0.44805E-01 -0.13026E-01  0.54881E-02 -0.58100E-03 -0.27665E-01 -0.62656E-01
 -0.95461E-01 -0.12493E+00 -0.15426E+00 -0.18401E+00 -0.21037E+00 -0.22833E+00
 -0.23465E+00 -0.22833E+00 -0.21037E+00 -0.18401E+00 -0.15426E+00 -0.12493E+00
 -0.95461E-01 -0.62655E-01 -0.27665E-01 -0.58100E-03 -0.32276E-01 -0.65778E-02
  0.18292E-01  0.36859E-01  0.48297E-01  0.53708E-01  0.52666E-01  0.43623E-01
  0.26620E-01  0.40538E-02 -0.20697E-01 -0.44114E-01 -0.62725E-01 -0.74327E-01
 -0.78978E-01 -0.77112E-01 -0.66899E-01 -0.46182E-01 -0.18453E-01  0.52254E-02
  0.13043E-01  0.15145E-02 -0.23113E-01 -0.51883E-01 -0.80191E-01 -0.10842E+00
 -0.13784E+00 -0.16706E+00 -0.19155E+00 -0.20571E+00 -0.20571E+00 -0.19155E+00
 -0.16706E+00 -0.13784E+00 -0.10842E+00 -0.80191E-01 -0.51883E-01 -0.23113E-01
  0.15145E-02  0.13043E-01 -0.19412E-01  0.42141E-02  0.25393E-01  0.41121E-01
  0.51078E-01  0.54825E-01  0.50535E-01  0.36981E-01  0.15688E-01 -0.94776E-02
 -0.34052E-01 -0.54058E-01 -0.66757E-01 -0.71539E-01 -0.69416E-01 -0.60821E-01
 -0.44884E-01 -0.22408E-01  0.96195E-03  0.16535E-01  0.18467E-01  0.74198E-02
 -0.11511E-01 -0.33469E-01 -0.56399E-01 -0.80441E-01 -0.10574E+00 -0.13024E+00
 -0.14895E+00 -0.15605E+00 -0.14895E+00 -0.13024E+00 -0.10574E+00 -0.80441E-01
 -0.56399E-01 -0.33469E-01 -0.11511E-01  0.74198E-02  0.18467E-01  0.16535E-01
 -0.70172E-02  0.13281E-01  0.30822E-01  0.43771E-01  0.51325E-01  0.51859E-01
  0.43304E-01  0.25505E-01  0.14904E-02 -0.23693E-01 -0.45049E-01 -0.59151E-01
 -0.64932E-01 -0.63401E-01 -0.55981E-01 -0.43056E-01 -0.24906E-01 -0.41574E-02
  0.13879E-01  0.24162E-01  0.24989E-01  0.18060E-01  0.63597E-02 -0.75951E-02
 -0.22457E-01 -0.38095E-01 -0.54506E-01 -0.69732E-01 -0.79353E-01 -0.79353E-01
 -0.69732E-01 -0.54506E-01 -0.38095E-01 -0.22457E-01 -0.75951E-02  0.63597E-02
  0.18060E-01  0.24989E-01  0.24162E-01  0.13879E-01  0.37791E-02  0.20661E-01
  0.34574E-01  0.44124E-01  0.48088E-01  0.44514E-01  0.31941E-01  0.11509E-01
 -0.12589E-01 -0.34806E-01 -0.50627E-01 -0.58132E-01 -0.58018E-01 -0.52076E-01
 -0.41424E-01 -0.26446E-01 -0.84684E-02  0.93021E-02  0.23268E-01  0.31645E-01
  0.34793E-01  0.33977E-01  0.30625E-01  0.26352E-01  0.22367E-01  0.18613E-01
  0.14460E-01  0.10531E-01  0.88336E-02  0.10531E-01  0.14460E-01  0.18613E-01
  0.22367E-01  0.26352E-01  0.30625E-01  0.33977E-01  0.34793E-01  0.31645E-01
  0.23268E-01  0.93021E-02  0.12292E-01  0.25658E-01  0.35747E-01  0.41425E-01
  0.41378E-01  0.33981E-01  0.18802E-01 -0.18803E-02 -0.23356E-01 -0.40546E-01
 -0.50305E-01 -0.52380E-01 -0.48403E-01 -0.39932E-01 -0.27580E-01 -0.12075E-01
  0.45111E-02  0.19464E-01  0.31354E-01  0.40604E-01  0.48153E-01  0.54478E-01
  0.60240E-01  0.66823E-01  0.75174E-01  0.84374E-01  0.92103E-01  0.96381E-01
  0.96381E-01  0.92103E-01  0.84374E-01  0.75174E-01  0.66823E-01  0.60240E-01
  0.54478E-01  0.48153E-01  0.40604E-01  0.31354E-01  0.19464E-01  0.45111E-02
  0.17843E-01  0.27730E-01  0.34188E-01  0.36196E-01  0.32591E-01  0.22495E-01
  0.65937E-02 -0.12140E-01 -0.29293E-01 -0.41020E-01 -0.45750E-01 -0.44258E-01
 -0.38136E-01 -0.28337E-01 -0.15359E-01 -0.47058E-03  0.14173E-01  0.27126E-01
  0.38856E-01  0.50818E-01  0.63743E-01  0.77557E-01  0.92680E-01  0.11021E+00
  0.13012E+00  0.14972E+00  0.16435E+00  0.16978E+00  0.16435E+00  0.14972E+00
  0.13012E+00  0.11021E+00  0.92680E-01  0.77557E-01  0.63743E-01  0.50818E-01
  0.38856E-01  0.27126E-01  0.14173E-01 -0.47058E-03  0.20687E-01  0.27620E-01
  0.31065E-01  0.30013E-01  0.23730E-01  0.12305E-01 -0.26844E-02 -0.18176E-01
 -0.30662E-01 -0.37735E-01 -0.38979E-01 -0.35433E-01 -0.28244E-01 -0.18019E-01
 -0.54781E-02  0.79059E-02  0.20661E-01  0.32766E-01  0.45789E-01  0.61357E-01
  0.79907E-01  0.10119E+00  0.12533E+00  0.15236E+00  0.18038E+00  0.20459E+00
  0.21884E+00  0.21884E+00  0.20459E+00  0.18038E+00  0.15236E+00  0.12533E+00
  0.10119E+00  0.79907E-01  0.61357E-01  0.45789E-01  0.32766E-01  0.20661E-01
  0.79059E-02 -0.54781E-02  0.22172E-01  0.26816E-01  0.27820E-01  0.24366E-01
  0.16393E-01  0.48500E-02 -0.82442E-02 -0.20209E-01 -0.28628E-01 -0.32289E-01
 -0.31392E-01 -0.26855E-01 -0.19463E-01 -0.97679E-02  0.14275E-02  0.13045E-01
  0.24598E-01  0.36995E-01  0.52125E-01  0.71536E-01  0.95627E-01  0.12396E+00
  0.15569E+00  0.18897E+00  0.21980E+00  0.24220E+00  0.25045E+00  0.24220E+00
  0.21980E+00  0.18897E+00  0.15569E+00  0.12396E+00  0.95627E-01  0.71536E-01
  0.52125E-01  0.36995E-01  0.24598E-01  0.13045E-01  0.14275E-02 -0.97679E-02
  0.23461E-01  0.26153E-01  0.25139E-01  0.20029E-01  0.11335E-01  0.49535E-03
 -0.10392E-01 -0.19202E-01 -0.24521E-01 -0.25991E-01 -0.24054E-01 -0.19407E-01
 -0.12641E-01 -0.42363E-02  0.53036E-02  0.15592E-01  0.26842E-01  0.40259E-01
  0.57731E-01  0.80834E-01  0.10993E+00  0.14395E+00  0.18056E+00  0.21602E+00
  0.24497E+00  0.26148E+00  0.26148E+00  0.24497E+00  0.21602E+00  0.18056E+00
  0.14395E+00  0.10993E+00  0.80834E-01  0.57731E-01  0.40259E-01  0.26842E-01
  0.15592E-01  0.53036E-02 -0.42363E-02 -0.12641E-01  0.24581E-01  0.25560E-01
  0.23168E-01  0.17254E-01  0.85378E-02 -0.12816E-02 -0.10107E-01 -0.16396E-01
 -0.19618E-01 -0.19957E-01 -0.17842E-01 -0.13764E-01 -0.81842E-02 -0.13538E-02
  0.67473E-02  0.16295E-01  0.27760E-01  0.42340E-01  0.61923E-01  0.88072E-01
  0.12084E+00  0.15836E+00  0.19711E+00  0.23200E+00  0.25679E+00  0.26583E+00
  0.25679E+00  0.23200E+00  0.19711E+00  0.15836E+00  0.12084E+00  0.88072E-01
  0.61923E-01  0.42340E-01  0.27760E-01  0.16295E-01  0.67473E-02 -0.13538E-02
 -0.81842E-02 -0.13764E-01  0.25148E-01  0.25110E-01  0.22182E-01  0.15969E-01
  0.73424E-02 -0.15452E-02 -0.85947E-02 -0.12970E-01 -0.14912E-01 -0.14834E-01
 -0.13020E-01 -0.98623E-02 -0.57235E-02 -0.48404E-03  0.63869E-02  0.15356E-01
  0.26932E-01  0.42318E-01  0.63359E-01  0.91390E-01  0.12615E+00  0.16547E+00
  0.20513E+00  0.23856E+00  0.25803E+00  0.25803E+00  0.23856E+00  0.20513E+00
  0.16547E+00  0.12615E+00  0.91390E-01  0.63359E-01  0.42318E-01  0.26932E-01
  0.15356E-01  0.63869E-02 -0.48405E-03 -0.57235E-02 -0.98623E-02 -0.13020E-01
  0.25553E-01  0.25419E-01  0.22226E-01  0.15394E-01  0.65545E-02 -0.14331E-02
 -0.67893E-02 -0.96258E-02 -0.10747E-01 -0.10544E-01 -0.92271E-02 -0.72354E-02
 -0.47479E-02 -0.11823E-02  0.43428E-02  0.12395E-01  0.23574E-01  0.39147E-01
  0.60740E-01  0.89392E-01  0.12494E+00  0.16536E+00  0.20528E+00  0.23571E+00
  0.24722E+00  0.23571E+00  0.20528E+00  0.16536E+00  0.12494E+00  0.89392E-01
  0.60740E-01  0.39147E-01  0.23574E-01  0.12395E-01  0.43428E-02 -0.11823E-02
 -0.47479E-02 -0.72354E-02 -0.92271E-02 -0.10544E-01  0.26443E-01  0.26269E-01
  0.22000E-01  0.13906E-01  0.50442E-02 -0.14561E-02 -0.48641E-02 -0.63268E-02
 -0.68673E-02 -0.67637E-02 -0.62945E-02 -0.58670E-02 -0.52623E-02 -0.35055E-02
  0.36571E-03  0.69948E-02  0.17228E-01  0.32299E-01  0.53357E-01  0.81250E-01
  0.11624E+00  0.15608E+00  0.19334E+00  0.21653E+00  0.21653E+00  0.19334E+00
  0.15608E+00  0.11624E+00  0.81250E-01  0.53357E-01  0.32299E-01  0.17228E-01
  0.69947E-02  0.36570E-03 -0.35056E-02 -0.52623E-02 -0.58670E-02 -0.62945E-02
 -0.67637E-02 -0.68673E-02  0.26713E-01  0.25265E-01  0.19018E-01  0.10218E-01
  0.28704E-02 -0.95785E-03 -0.21865E-02 -0.26168E-02 -0.30709E-02 -0.36869E-02
 -0.47179E-02 -0.62165E-02 -0.75089E-02 -0.75908E-02 -0.56464E-02 -0.80703E-03
  0.80170E-02  0.21586E-01  0.40266E-01  0.64890E-01  0.96129E-01  0.13092E+00
  0.15993E+00  0.17141E+00  0.15993E+00  0.13092E+00  0.96129E-01  0.64890E-01
  0.40266E-01  0.21586E-01  0.80170E-02 -0.80703E-03 -0.56464E-02 -0.75908E-02
 -0.75089E-02 -0.62165E-02 -0.47179E-02 -0.36869E-02 -0.30709E-02 -0.26168E-02
  0.22911E-01  0.19118E-01  0.11924E-01  0.51284E-02  0.17303E-02  0.14204E-02
  0.19172E-02  0.16308E-02  0.31685E-03 -0.19111E-02 -0.49612E-02 -0.83534E-02
 -0.11319E-01 -0.13238E-01 -0.13367E-01 -0.10486E-01 -0.37483E-02  0.64576E-02
  0.19716E-01  0.37291E-01  0.60291E-01  0.84936E-01  0.10164E+00  0.10164E+00
  0.84936E-01  0.60291E-01  0.37291E-01  0.19716E-01  0.64576E-02 -0.37483E-02
 -0.10486E-01 -0.13367E-01 -0.13238E-01 -0.11319E-01 -0.83534E-02 -0.49612E-02
 -0.19111E-02  0.31684E-03  0.16308E-02  0.19172E-02  0.40853E-01  0.43934E-01
  0.43934E-01  0.40853E-01  0.35210E-01  0.27678E-01  0.18827E-01  0.93219E-02
  0.24542E-03 -0.70917E-02 -0.11877E-01 -0.14225E-01 -0.14633E-01 -0.13092E-01
 -0.91469E-02 -0.30444E-02  0.36340E-02  0.90661E-02  0.12882E-01  0.16143E-01
  0.19366E-01  0.21089E-01  0.19049E-01  0.12675E-01  0.38751E-02 -0.46674E-02
 -0.11440E-01 -0.16228E-01 -0.19030E-01 -0.19607E-01 -0.17987E-01 -0.14791E-01
 -0.10882E-01 -0.69415E-02 -0.34650E-02 -0.76562E-03  0.11882E-02  0.26485E-02
  0.36025E-02  0.37002E-02  0.27223E-01  0.28212E-01  0.27223E-01  0.24470E-01
  0.20283E-01  0.14693E-01  0.76965E-02 -0.42335E-04 -0.70644E-02 -0.11962E-01
 -0.14266E-01 -0.14283E-01 -0.12164E-01 -0.75518E-02 -0.33748E-03  0.85199E-02
  0.17374E-01  0.25014E-01  0.30927E-01  0.34287E-01  0.33336E-01  0.26614E-01
  0.14959E-01  0.17260E-02 -0.94495E-02 -0.17015E-01 -0.21569E-01 -0.24066E-01
 -0.24555E-01 -0.22654E-01 -0.18576E-01 -0.13303E-01 -0.79910E-02 -0.34972E-02
 -0.26955E-03  0.16608E-02  0.25332E-02  0.24393E-02  0.11483E-02 -0.13045E-02
  0.12512E-01  0.12512E-01  0.11673E-01  0.10110E-01  0.75821E-02  0.35392E-02
 -0.20339E-02 -0.80026E-02 -0.12663E-01 -0.14918E-01 -0.14652E-01 -0.12026E-01
 -0.68675E-02  0.99408E-03  0.11068E-01  0.22275E-01  0.33508E-01  0.43545E-01
  0.50201E-01  0.50315E-01  0.41676E-01  0.25489E-01  0.65600E-02 -0.95891E-02
 -0.20130E-01 -0.25684E-01 -0.28201E-01 -0.28636E-01 -0.26668E-01 -0.21994E-01
 -0.15299E-01 -0.80472E-02 -0.17357E-02  0.26279E-02  0.47215E-02  0.47877E-02
  0.31656E-02 -0.99724E-04 -0.48907E-02 -0.10130E-01  0.77858E-03  0.72291E-03
  0.56290E-03  0.39131E-04 -0.15870E-02 -0.48958E-02 -0.93780E-02 -0.13472E-01
 -0.15654E-01 -0.15274E-01 -0.12306E-01 -0.67160E-02  0.15183E-02  0.11990E-01
  0.23952E-01  0.36768E-01  0.49581E-01  0.60093E-01  0.64220E-01  0.58165E-01
  0.41708E-01  0.19428E-01 -0.18417E-02 -0.17249E-01 -0.26042E-01 -0.30132E-01
 -0.31217E-01 -0.29450E-01 -0.24333E-01 -0.16193E-01 -0.66207E-02  0.21887E-02
  0.83775E-02  0.11043E-01  0.10327E-01  0.69182E-02  0.13746E-02 -0.59382E-02
 -0.14040E-01 -0.20720E-01 -0.61069E-02 -0.59176E-02 -0.56777E-02 -0.59541E-02
 -0.75108E-02 -0.10443E-01 -0.13708E-01 -0.15742E-01 -0.15449E-01 -0.12463E-01
 -0.67517E-02  0.15389E-02  0.11882E-01  0.23505E-01  0.35948E-01  0.48947E-01
  0.61136E-01  0.68970E-01  0.67926E-01  0.55766E-01  0.34975E-01  0.11733E-01
 -0.78868E-02 -0.21114E-01 -0.28504E-01 -0.31535E-01 -0.30614E-01 -0.25235E-01
 -0.15513E-01 -0.32097E-02  0.86811E-02  0.17247E-01  0.20843E-01  0.19469E-01
  0.14235E-01  0.63766E-02 -0.32857E-02 -0.13856E-01 -0.23468E-01 -0.29361E-01
 -0.85157E-02 -0.83380E-02 -0.82957E-02 -0.89361E-02 -0.10630E-01 -0.12947E-01
 -0.14694E-01 -0.14628E-01 -0.12025E-01 -0.67023E-02  0.11149E-02  0.10790E-01
  0.21455E-01  0.32558E-01  0.44026E-01  0.55368E-01  0.64396E-01  0.67338E-01
  0.61019E-01  0.45499E-01  0.24655E-01  0.39804E-02 -0.12472E-01 -0.23426E-01
 -0.29232E-01 -0.29954E-01 -0.24858E-01 -0.13711E-01  0.16755E-02  0.17402E-01
  0.29150E-01  0.34210E-01  0.32393E-01  0.25377E-01  0.15245E-01  0.34405E-02
 -0.90873E-02 -0.20944E-01 -0.29779E-01 -0.33090E-01 -0.77244E-02 -0.78783E-02
 -0.83546E-02 -0.94174E-02 -0.10986E-01 -0.12397E-01 -0.12628E-01 -0.10776E-01
 -0.64015E-02  0.33766E-03  0.87550E-02  0.17958E-01  0.27358E-01  0.36854E-01
  0.46278E-01  0.54446E-01  0.58885E-01  0.56865E-01  0.47192E-01  0.31345E-01
  0.12969E-01 -0.39888E-02 -0.16982E-01 -0.25056E-01 -0.27634E-01 -0.23567E-01
 -0.11914E-01  0.60929E-02  0.26113E-01  0.42240E-01  0.50047E-01  0.48629E-01
  0.40167E-01  0.27813E-01  0.13878E-01 -0.42612E-03 -0.14039E-01 -0.25190E-01
 -0.31597E-01 -0.31597E-01 -0.46680E-02 -0.52332E-02 -0.62115E-02 -0.75246E-02
 -0.88198E-02 -0.94621E-02 -0.86589E-02 -0.57622E-02 -0.66406E-03  0.60470E-02
  0.13458E-01  0.20975E-01  0.28543E-01  0.36112E-01  0.42899E-01  0.47260E-01
  0.47308E-01  0.41821E-01  0.30947E-01  0.16454E-01  0.12525E-02 -0.11766E-01
 -0.20709E-01 -0.24487E-01 -0.21779E-01 -0.10982E-01  0.79414E-02  0.31379E-01
  0.52537E-01  0.64882E-01  0.65756E-01  0.57071E-01  0.42937E-01  0.26829E-01
  0.10581E-01 -0.47737E-02 -0.17888E-01 -0.26903E-01 -0.30134E-01 -0.26903E-01
  0.11174E-03 -0.86912E-03 -0.23119E-02 -0.38642E-02 -0.51093E-02 -0.55476E-02
 -0.45525E-02 -0.16686E-02  0.29226E-02  0.84336E-02  0.14147E-01  0.19934E-01
  0.25878E-01  0.31471E-01  0.35426E-01  0.36326E-01  0.33271E-01  0.26068E-01
  0.15345E-01  0.28112E-02 -0.89901E-02 -0.17690E-01 -0.21811E-01 -0.20191E-01
 -0.11152E-01  0.65340E-02  0.31018E-01  0.56141E-01  0.73966E-01  0.79398E-01
  0.72745E-01  0.58203E-01  0.40354E-01  0.22051E-01  0.47454E-02 -0.10301E-01
 -0.21546E-01 -0.27570E-01 -0.27570E-01 -0.21546E-01  0.58042E-02  0.42838E-02
  0.23185E-02  0.35943E-03 -0.13026E-02 -0.23141E-02 -0.20903E-02 -0.20190E-03
  0.31281E-02  0.72026E-02  0.11542E-01  0.16087E-01  0.20596E-01  0.24156E-01
  0.25555E-01  0.24006E-01  0.19299E-01  0.11625E-01  0.18075E-02 -0.83261E-02
 -0.16400E-01 -0.20564E-01 -0.19711E-01 -0.12542E-01  0.25701E-02  0.25511E-01
  0.52010E-01  0.74328E-01  0.85465E-01  0.83233E-01  0.70536E-01  0.52292E-01
  0.32420E-01  0.13198E-01 -0.37968E-02 -0.17063E-01 -0.25407E-01 -0.28236E-01
 -0.25407E-01 -0.17063E-01  0.11281E-01  0.91066E-02  0.65571E-02  0.39160E-02
  0.12469E-02 -0.11096E-02 -0.23641E-02 -0.18657E-02  0.27741E-03  0.33863E-02
  0.68784E-02  0.10429E-01  0.13522E-01  0.15263E-01  0.14827E-01  0.11877E-01
  0.64907E-02 -0.90634E-03 -0.92039E-02 -0.16510E-01 -0.20853E-01 -0.20866E-01
 -0.15433E-01 -0.31091E-02  0.16857E-01  0.42150E-01  0.66555E-01  0.82646E-01
  0.86050E-01  0.77440E-01  0.60863E-01  0.40719E-01  0.20186E-01  0.14573E-02
 -0.13727E-01 -0.24157E-01 -0.29370E-01 -0.29370E-01 -0.24157E-01 -0.13727E-01
  0.15821E-01  0.12966E-01  0.96525E-02  0.58713E-02  0.16091E-02 -0.25123E-02
 -0.52719E-02 -0.57861E-02 -0.42680E-02 -0.16804E-02  0.11544E-02  0.38038E-02
  0.57656E-02  0.62581E-02  0.46383E-02  0.81073E-03 -0.48114E-02 -0.11427E-01
 -0.17789E-01 -0.22310E-01 -0.23461E-01 -0.19884E-01 -0.10191E-01  0.65769E-02
  0.29296E-01  0.53505E-01  0.72610E-01  0.81235E-01  0.77904E-01  0.64915E-01
  0.46204E-01  0.25454E-01  0.55268E-02 -0.11433E-01 -0.24003E-01 -0.31562E-01
 -0.34061E-01 -0.31562E-01 -0.24003E-01 -0.11433E-01  0.19340E-01  0.15572E-01
  0.11011E-01  0.55677E-02 -0.51901E-03 -0.61247E-02 -0.96734E-02 -0.10417E-01
 -0.90380E-02 -0.68048E-02 -0.44773E-02 -0.23492E-02 -0.10114E-02 -0.14288E-02
 -0.41515E-02 -0.88034E-02 -0.14432E-01 -0.20041E-01 -0.24635E-01 -0.26974E-01
 -0.25496E-01 -0.18519E-01 -0.48718E-02  0.14950E-01  0.37760E-01  0.58137E-01
  0.70682E-01  0.72499E-01  0.64029E-01  0.48049E-01  0.28140E-01  0.76459E-02
 -0.10816E-01 -0.25553E-01 -0.35689E-01 -0.40837E-01 -0.40837E-01 -0.35689E-01
 -0.25553E-01 -0.10816E-01  0.21611E-01  0.16377E-01  0.10062E-01  0.27891E-02
 -0.47573E-02 -0.10980E-01 -0.14302E-01 -0.14552E-01 -0.12969E-01 -0.10813E-01
 -0.85447E-02 -0.65249E-02 -0.57818E-02 -0.74199E-02 -0.11478E-01 -0.16882E-01
 -0.22439E-01 -0.27390E-01 -0.30950E-01 -0.31696E-01 -0.27697E-01 -0.17367E-01
 -0.57870E-03  0.20473E-01  0.41346E-01  0.56817E-01  0.63030E-01  0.58876E-01
  0.45891E-01  0.27219E-01  0.64586E-02 -0.13288E-01 -0.29990E-01 -0.42606E-01
 -0.50532E-01 -0.53253E-01 -0.50532E-01 -0.42606E-01 -0.29990E-01 -0.13288E-01
  0.21876E-01  0.14856E-01  0.67529E-02 -0.20894E-02 -0.10457E-01 -0.16351E-01
 -0.18525E-01 -0.17620E-01 -0.15301E-01 -0.12665E-01 -0.10130E-01 -0.84845E-02
 -0.90173E-02 -0.12324E-01 -0.17641E-01 -0.23674E-01 -0.29577E-01 -0.34726E-01
 -0.37885E-01 -0.37106E-01 -0.30499E-01 -0.17205E-01  0.17665E-02  0.23038E-01
  0.41405E-01  0.51768E-01  0.51367E-01  0.40702E-01  0.22751E-01  0.14325E-02
 -0.19701E-01 -0.38217E-01 -0.52869E-01 -0.63080E-01 -0.68379E-01 -0.68379E-01
 -0.63080E-01 -0.52869E-01 -0.38217E-01 -0.19701E-01  0.19856E-01  0.11416E-01
  0.17518E-02 -0.84761E-02 -0.17133E-01 -0.21782E-01 -0.21847E-01 -0.18977E-01
 -0.15262E-01 -0.11869E-01 -0.95167E-02 -0.92103E-02 -0.11685E-01 -0.16597E-01
 -0.22950E-01 -0.30006E-01 -0.37165E-01 -0.43129E-01 -0.45878E-01 -0.43455E-01