       #
       # Generated by the Wannier90 code http://www.wannier.org
       # On 28Aug2024 at 23:25:36 
       #
CRYSTAL
PRIMVEC
   2.7382345   2.7382345   0.0000000
   0.0000000   2.7382345   2.7382345
   2.7382345   0.0000000   2.7382345
CONVVEC
   2.7382345   2.7382345   0.0000000
   0.0000000   2.7382345   2.7382345
   2.7382345   0.0000000   2.7382345
PRIMCOORD
     2  1
Si      0.0000000   0.0000000   0.0000000
Si      1.3691172   1.3691172   1.3691172


BEGIN_BLOCK_DATAGRID_3D
3D_field
BEGIN_DATAGRID_3D_UNKNOWN
    60    60    60
   -5.750292   -5.750292   -5.750292
   8.0777918   8.0777918   0.0000000
   0.0000000   8.0777918   8.0777918
   8.0777918   0.0000000   8.0777918
 -0.13493E-01 -0.17680E-01 -0.21604E-01 -0.24353E-01 -0.25099E-01 -0.23115E-01
 -0.17969E-01 -0.10048E-01 -0.77402E-03  0.79705E-02  0.14730E-01  0.18848E-01
  0.20215E-01  0.18848E-01  0.14730E-01  0.79705E-02 -0.77402E-03 -0.10048E-01
 -0.17969E-01 -0.23115E-01 -0.25099E-01 -0.24353E-01 -0.21604E-01 -0.17680E-01
 -0.13493E-01 -0.97710E-02 -0.67716E-02 -0.44988E-02 -0.31340E-02 -0.29437E-02
 -0.37712E-02 -0.49613E-02 -0.58857E-02 -0.62728E-02 -0.59704E-02 -0.47615E-02
 -0.26289E-02  0.94310E-04  0.30615E-02  0.60627E-02  0.84998E-02  0.90810E-02
  0.67469E-02  0.20364E-02 -0.29057E-02 -0.59242E-02 -0.63080E-02 -0.47336E-02
 -0.22637E-02  0.31147E-03  0.24868E-02  0.39181E-02  0.44133E-02  0.39181E-02
  0.24868E-02  0.31147E-03 -0.22637E-02 -0.47336E-02 -0.63080E-02 -0.59242E-02
 -0.11183E-01 -0.13630E-01 -0.15519E-01 -0.16599E-01 -0.16433E-01 -0.14170E-01
 -0.90306E-02 -0.12652E-02  0.75628E-02  0.15415E-01  0.20892E-01  0.23586E-01
  0.23586E-01  0.20892E-01  0.15415E-01  0.75628E-02 -0.12652E-02 -0.90306E-02
 -0.14170E-01 -0.16433E-01 -0.16599E-01 -0.15519E-01 -0.13630E-01 -0.11183E-01
 -0.85116E-02 -0.59198E-02 -0.36318E-02 -0.20082E-02 -0.15269E-02 -0.22973E-02
 -0.37768E-02 -0.51912E-02 -0.60860E-02 -0.62980E-02 -0.56693E-02 -0.41641E-02
 -0.21240E-02 -0.34288E-04  0.18263E-02  0.30507E-02  0.25582E-02 -0.82079E-03
 -0.67845E-02 -0.13021E-01 -0.16775E-01 -0.16929E-01 -0.14373E-01 -0.10683E-01
 -0.69135E-02 -0.35473E-02 -0.95283E-03  0.47513E-03  0.47513E-03 -0.95283E-03
 -0.35473E-02 -0.69135E-02 -0.10683E-01 -0.14373E-01 -0.16929E-01 -0.16775E-01
 -0.11297E-01 -0.12528E-01 -0.12766E-01 -0.12289E-01 -0.10887E-01 -0.76353E-02
 -0.17877E-02  0.61416E-02  0.14387E-01  0.21051E-01  0.25111E-01  0.26437E-01
  0.25111E-01  0.21051E-01  0.14387E-01  0.61416E-02 -0.17877E-02 -0.76353E-02
 -0.10887E-01 -0.12289E-01 -0.12766E-01 -0.12528E-01 -0.11297E-01 -0.90337E-02
 -0.61850E-02 -0.33840E-02 -0.12398E-02 -0.29058E-03 -0.75821E-03 -0.22654E-02
 -0.40337E-02 -0.54215E-02 -0.61218E-02 -0.59638E-02 -0.49143E-02 -0.33220E-02
 -0.17818E-02 -0.67464E-03 -0.28078E-03 -0.14733E-02 -0.55737E-02 -0.12766E-01
 -0.20868E-01 -0.26455E-01 -0.27495E-01 -0.24619E-01 -0.19920E-01 -0.15057E-01
 -0.10694E-01 -0.71084E-02 -0.46859E-02 -0.38242E-02 -0.46859E-02 -0.71084E-02
 -0.10694E-01 -0.15057E-01 -0.19920E-01 -0.24619E-01 -0.27495E-01 -0.26455E-01
 -0.15182E-01 -0.15309E-01 -0.13819E-01 -0.11439E-01 -0.81636E-02 -0.32651E-02
  0.36142E-02  0.11613E-01  0.19032E-01  0.24412E-01  0.27131E-01  0.27131E-01
  0.24412E-01  0.19032E-01  0.11613E-01  0.36142E-02 -0.32651E-02 -0.81636E-02
 -0.11439E-01 -0.13819E-01 -0.15309E-01 -0.15182E-01 -0.12997E-01 -0.93008E-02
 -0.52875E-02 -0.20458E-02 -0.21103E-03  0.36505E-04 -0.10191E-02 -0.27145E-02
 -0.43369E-02 -0.53928E-02 -0.55852E-02 -0.48226E-02 -0.34316E-02 -0.20959E-02
 -0.13356E-02 -0.13427E-02 -0.26715E-02 -0.66307E-02 -0.14060E-01 -0.23515E-01
 -0.31422E-01 -0.34660E-01 -0.32885E-01 -0.28158E-01 -0.22766E-01 -0.17853E-01
 -0.13738E-01 -0.10680E-01 -0.90317E-02 -0.90317E-02 -0.10680E-01 -0.13738E-01
 -0.17853E-01 -0.22766E-01 -0.28158E-01 -0.32885E-01 -0.34660E-01 -0.31422E-01
 -0.20943E-01 -0.19602E-01 -0.16217E-01 -0.11844E-01 -0.66621E-02 -0.27438E-03
  0.72487E-02  0.14915E-01  0.21337E-01  0.25481E-01  0.26894E-01  0.25481E-01
  0.21337E-01  0.14915E-01  0.72487E-02 -0.27438E-03 -0.66621E-02 -0.11844E-01
 -0.16217E-01 -0.19602E-01 -0.20943E-01 -0.19307E-01 -0.15043E-01 -0.97234E-02
 -0.50408E-02 -0.19366E-02 -0.58361E-03 -0.72544E-03 -0.18503E-02 -0.32898E-02
 -0.43954E-02 -0.46846E-02 -0.39601E-02 -0.24973E-02 -0.10304E-02 -0.25585E-03
 -0.39589E-03 -0.16337E-02 -0.48939E-02 -0.11383E-01 -0.20769E-01 -0.30234E-01
 -0.36146E-01 -0.36852E-01 -0.33562E-01 -0.28693E-01 -0.23931E-01 -0.19873E-01
 -0.16736E-01 -0.14750E-01 -0.14075E-01 -0.14750E-01 -0.16736E-01 -0.19873E-01
 -0.23931E-01 -0.28693E-01 -0.33562E-01 -0.36852E-01 -0.36146E-01 -0.30233E-01
 -0.25272E-01 -0.22380E-01 -0.17552E-01 -0.11882E-01 -0.55911E-02  0.14300E-02
  0.88400E-02  0.15720E-01  0.20997E-01  0.23847E-01  0.23847E-01  0.20997E-01
  0.15720E-01  0.88400E-02  0.14300E-02 -0.55911E-02 -0.11882E-01 -0.17552E-01
 -0.22380E-01 -0.25272E-01 -0.24920E-01 -0.21148E-01 -0.15389E-01 -0.96817E-02
 -0.53708E-02 -0.27896E-02 -0.17674E-02 -0.19843E-02 -0.28996E-02 -0.37385E-02
 -0.37837E-02 -0.27216E-02 -0.82251E-03  0.11361E-02  0.22993E-02  0.22699E-02
  0.10609E-02 -0.16454E-02 -0.67880E-02 -0.14815E-01 -0.24243E-01 -0.31980E-01
 -0.35542E-01 -0.34833E-01 -0.31637E-01 -0.27831E-01 -0.24394E-01 -0.21678E-01
 -0.19864E-01 -0.18992E-01 -0.18992E-01 -0.19864E-01 -0.21678E-01 -0.24394E-01
 -0.27831E-01 -0.31637E-01 -0.34833E-01 -0.35542E-01 -0.31980E-01 -0.24243E-01
 -0.26786E-01 -0.23001E-01 -0.17750E-01 -0.11837E-01 -0.54504E-02  0.12738E-02
  0.78623E-02  0.13542E-01  0.17443E-01  0.18840E-01  0.17443E-01  0.13542E-01
  0.78623E-02  0.12738E-02 -0.54504E-02 -0.11837E-01 -0.17750E-01 -0.23001E-01
 -0.26786E-01 -0.27834E-01 -0.25482E-01 -0.20554E-01 -0.14891E-01 -0.10022E-01
 -0.65010E-02 -0.43358E-02 -0.34849E-02 -0.36627E-02 -0.40377E-02 -0.35831E-02
 -0.17981E-02  0.97341E-03  0.38185E-02  0.57677E-02  0.62346E-02  0.51487E-02
  0.25937E-02 -0.16906E-02 -0.81065E-02 -0.16205E-01 -0.24145E-01 -0.29646E-01
 -0.31626E-01 -0.30757E-01 -0.28521E-01 -0.26094E-01 -0.24072E-01 -0.22715E-01
 -0.22038E-01 -0.21854E-01 -0.22038E-01 -0.22715E-01 -0.24072E-01 -0.26094E-01
 -0.28521E-01 -0.30757E-01 -0.31626E-01 -0.29646E-01 -0.24145E-01 -0.16205E-01
 -0.26875E-01 -0.23076E-01 -0.18184E-01 -0.12670E-01 -0.68319E-02 -0.10422E-02
  0.42282E-02  0.83931E-02  0.10748E-01  0.10748E-01  0.83931E-02  0.42282E-02
 -0.10422E-02 -0.68319E-02 -0.12670E-01 -0.18184E-01 -0.23076E-01 -0.26875E-01
 -0.28746E-01 -0.27941E-01 -0.24639E-01 -0.20058E-01 -0.15527E-01 -0.11669E-01
 -0.86297E-02 -0.66540E-02 -0.58623E-02 -0.55815E-02 -0.45015E-02 -0.17783E-02
  0.22152E-02  0.62914E-02  0.93307E-02  0.10699E-01  0.10178E-01  0.78194E-02
  0.38171E-02 -0.16282E-02 -0.81962E-02 -0.15084E-01 -0.20976E-01 -0.24701E-01
 -0.25989E-01 -0.25502E-01 -0.24224E-01 -0.22920E-01 -0.22006E-01 -0.21580E-01
 -0.21474E-01 -0.21474E-01 -0.21580E-01 -0.22006E-01 -0.22920E-01 -0.24224E-01
 -0.25502E-01 -0.25989E-01 -0.24701E-01 -0.20976E-01 -0.15084E-01 -0.81962E-02
 -0.27362E-01 -0.23865E-01 -0.19401E-01 -0.14396E-01 -0.94016E-02 -0.48835E-02
 -0.11344E-02  0.14774E-02  0.24370E-02  0.14774E-02 -0.11344E-02 -0.48835E-02
 -0.94016E-02 -0.14396E-01 -0.19401E-01 -0.23865E-01 -0.27362E-01 -0.29505E-01
 -0.29841E-01 -0.28222E-01 -0.25193E-01 -0.21637E-01 -0.18068E-01 -0.14617E-01
 -0.11626E-01 -0.96056E-02 -0.83247E-02 -0.64697E-02 -0.27919E-02  0.25286E-02
  0.80213E-02  0.12264E-01  0.14672E-01  0.15132E-01  0.13525E-01  0.99244E-02
  0.49019E-02 -0.72474E-03 -0.63325E-02 -0.11480E-01 -0.15639E-01 -0.18274E-01
 -0.19260E-01 -0.19047E-01 -0.18346E-01 -0.17699E-01 -0.17316E-01 -0.17163E-01
 -0.17129E-01 -0.17163E-01 -0.17316E-01 -0.17699E-01 -0.18346E-01 -0.19047E-01
 -0.19260E-01 -0.18274E-01 -0.15639E-01 -0.11480E-01 -0.63325E-02 -0.72474E-03
 -0.28300E-01 -0.24860E-01 -0.20597E-01 -0.16126E-01 -0.12126E-01 -0.88899E-02
 -0.64642E-02 -0.50806E-02 -0.50806E-02 -0.64642E-02 -0.88899E-02 -0.12126E-01
 -0.16126E-01 -0.20597E-01 -0.24859E-01 -0.28300E-01 -0.30673E-01 -0.31859E-01
 -0.31678E-01 -0.30185E-01 -0.27808E-01 -0.24932E-01 -0.21620E-01 -0.18050E-01
 -0.14815E-01 -0.12191E-01 -0.92922E-02 -0.47057E-02  0.17947E-02  0.86992E-02
  0.14163E-01  0.17487E-01  0.18902E-01  0.18460E-01  0.15902E-01  0.11521E-01
  0.64236E-02  0.16623E-02 -0.24948E-02 -0.61938E-02 -0.92471E-02 -0.11157E-01
 -0.11761E-01 -0.11490E-01 -0.10931E-01 -0.10382E-01 -0.99025E-02 -0.95915E-02
 -0.95915E-02 -0.99025E-02 -0.10382E-01 -0.10931E-01 -0.11490E-01 -0.11761E-01
 -0.11157E-01 -0.92471E-02 -0.61938E-02 -0.24948E-02  0.16623E-02  0.64236E-02
 -0.28536E-01 -0.24959E-01 -0.20901E-01 -0.17068E-01 -0.13964E-01 -0.11615E-01
 -0.10010E-01 -0.94107E-02 -0.10010E-01 -0.11615E-01 -0.13964E-01 -0.17068E-01
 -0.20901E-01 -0.24959E-01 -0.28536E-01 -0.31315E-01 -0.33317E-01 -0.34419E-01
 -0.34351E-01 -0.33143E-01 -0.31121E-01 -0.28431E-01 -0.25024E-01 -0.21155E-01
 -0.17276E-01 -0.13143E-01 -0.76653E-02 -0.27153E-03  0.78640E-02  0.14625E-01
  0.18879E-01  0.21000E-01  0.21564E-01  0.20382E-01  0.17234E-01  0.12897E-01
  0.87131E-02  0.53009E-02  0.23148E-02 -0.52994E-03 -0.27858E-02 -0.38458E-02
 -0.37544E-02 -0.30865E-02 -0.22551E-02 -0.13344E-02 -0.48603E-03 -0.12258E-03
 -0.48603E-03 -0.13344E-02 -0.22551E-02 -0.30865E-02 -0.37544E-02 -0.38457E-02
 -0.27858E-02 -0.52993E-03  0.23148E-02  0.53009E-02  0.87131E-02  0.12897E-01
 -0.27498E-01 -0.23861E-01 -0.20095E-01 -0.16741E-01 -0.14035E-01 -0.11980E-01
 -0.10782E-01 -0.10782E-01 -0.11980E-01 -0.14035E-01 -0.16741E-01 -0.20095E-01
 -0.23861E-01 -0.27498E-01 -0.30668E-01 -0.33416E-01 -0.35667E-01 -0.36944E-01
 -0.36906E-01 -0.35802E-01 -0.34028E-01 -0.31521E-01 -0.28017E-01 -0.23609E-01
 -0.18462E-01 -0.12167E-01 -0.41971E-02  0.48046E-02  0.12894E-01  0.18437E-01
  0.21414E-01  0.22711E-01  0.22638E-01  0.20877E-01  0.17687E-01  0.14231E-01
  0.11438E-01  0.91454E-02  0.68193E-02  0.46785E-02  0.35503E-02  0.37814E-02
  0.48569E-02  0.61398E-02  0.74769E-02  0.88426E-02  0.98050E-02  0.98050E-02
  0.88426E-02  0.74769E-02  0.61398E-02  0.48569E-02  0.37815E-02  0.35503E-02
  0.46785E-02  0.68194E-02  0.91454E-02  0.11438E-01  0.14231E-01  0.17687E-01
 -0.25377E-01 -0.21607E-01 -0.17834E-01 -0.14395E-01 -0.11497E-01 -0.94233E-02
 -0.86459E-02 -0.94233E-02 -0.11497E-01 -0.14395E-01 -0.17833E-01 -0.21607E-01
 -0.25377E-01 -0.28901E-01 -0.32249E-01 -0.35408E-01 -0.37857E-01 -0.38983E-01
 -0.38862E-01 -0.38106E-01 -0.36882E-01 -0.34596E-01 -0.30691E-01 -0.25224E-01
 -0.18400E-01 -0.10147E-01 -0.76695E-03  0.83618E-02  0.15483E-01  0.19896E-01
  0.22170E-01  0.22946E-01  0.22241E-01  0.20152E-01  0.17554E-01  0.15443E-01
  0.13894E-01  0.12317E-01  0.10673E-01  0.98147E-02  0.10437E-01  0.12199E-01
  0.14218E-01  0.16067E-01  0.17823E-01  0.19323E-01  0.19948E-01  0.19323E-01
  0.17823E-01  0.16067E-01  0.14218E-01  0.12199E-01  0.10437E-01  0.98147E-02
  0.10673E-01  0.12317E-01  0.13894E-01  0.15443E-01  0.17554E-01  0.20152E-01
 -0.21879E-01 -0.17492E-01 -0.13107E-01 -0.90744E-02 -0.58371E-02 -0.39765E-02
 -0.39765E-02 -0.58371E-02 -0.90743E-02 -0.13107E-01 -0.17492E-01 -0.21879E-01
 -0.26068E-01 -0.30117E-01 -0.34052E-01 -0.37442E-01 -0.39626E-01 -0.40529E-01
 -0.40799E-01 -0.40843E-01 -0.40047E-01 -0.37361E-01 -0.32418E-01 -0.25624E-01
 -0.17409E-01 -0.80734E-02  0.15468E-02  0.99808E-02  0.16089E-01  0.19798E-01
  0.21596E-01  0.21752E-01  0.20487E-01  0.18590E-01  0.17104E-01  0.16335E-01
  0.15732E-01  0.14971E-01  0.14700E-01  0.15809E-01  0.18275E-01  0.21177E-01
  0.23766E-01  0.26006E-01  0.27988E-01  0.29281E-01  0.29281E-01  0.27988E-01
  0.26006E-01  0.23766E-01  0.21177E-01  0.18275E-01  0.15809E-01  0.14700E-01
  0.14971E-01  0.15732E-01  0.16335E-01  0.17104E-01  0.18590E-01  0.20487E-01
 -0.15978E-01 -0.10472E-01 -0.51549E-02 -0.58947E-03  0.25540E-02  0.36835E-02
  0.25540E-02 -0.58946E-03 -0.51549E-02 -0.10472E-01 -0.15978E-01 -0.21350E-01
 -0.26522E-01 -0.31440E-01 -0.35727E-01 -0.38845E-01 -0.40740E-01 -0.42023E-01
 -0.43158E-01 -0.43615E-01 -0.42236E-01 -0.38391E-01 -0.32385E-01 -0.24756E-01
 -0.15800E-01 -0.60662E-02  0.31809E-02  0.10566E-01  0.15536E-01  0.18354E-01
  0.19375E-01  0.18888E-01  0.17599E-01  0.16594E-01  0.16476E-01  0.16901E-01
  0.17335E-01  0.18007E-01  0.19685E-01  0.22623E-01  0.26178E-01  0.29551E-01
  0.32523E-01  0.35202E-01  0.37307E-01  0.38137E-01  0.37307E-01  0.35202E-01
  0.32523E-01  0.29551E-01  0.26178E-01  0.22624E-01  0.19685E-01  0.18007E-01
  0.17335E-01  0.16901E-01  0.16476E-01  0.16594E-01  0.17599E-01  0.18888E-01
 -0.72213E-02 -0.56687E-03  0.53957E-02  0.99106E-02  0.12338E-01  0.12338E-01
  0.99106E-02  0.53957E-02 -0.56686E-03 -0.72212E-02 -0.13995E-01 -0.20615E-01
 -0.26854E-01 -0.32245E-01 -0.36303E-01 -0.39105E-01 -0.41329E-01 -0.43399E-01
 -0.44758E-01 -0.44342E-01 -0.41705E-01 -0.37209E-01 -0.31129E-01 -0.23199E-01
 -0.13517E-01 -0.34691E-02  0.48982E-02  0.10439E-01  0.13449E-01  0.14756E-01
  0.14904E-01  0.14373E-01  0.13973E-01  0.14431E-01  0.15756E-01  0.17471E-01
  0.19406E-01  0.21897E-01  0.25181E-01  0.28977E-01  0.32825E-01  0.36558E-01
  0.40171E-01  0.43323E-01  0.45240E-01  0.45240E-01  0.43323E-01  0.40171E-01
  0.36558E-01  0.32825E-01  0.28977E-01  0.25181E-01  0.21897E-01  0.19406E-01
  0.17471E-01  0.15756E-01  0.14431E-01  0.13973E-01  0.14373E-01  0.14904E-01
  0.34741E-02  0.10823E-01  0.16766E-01  0.20557E-01  0.21844E-01  0.20557E-01
  0.16766E-01  0.10823E-01  0.34741E-02 -0.44532E-02 -0.12420E-01 -0.20041E-01
 -0.26715E-01 -0.31828E-01 -0.35456E-01 -0.38423E-01 -0.41230E-01 -0.43230E-01
 -0.43373E-01 -0.41636E-01 -0.38945E-01 -0.35481E-01 -0.29872E-01 -0.20913E-01
 -0.98202E-02  0.89239E-04  0.61549E-02  0.83557E-02  0.85120E-02  0.82578E-02
  0.82433E-02  0.87228E-02  0.10009E-01  0.12232E-01  0.15167E-01  0.18532E-01
  0.22205E-01  0.26070E-01  0.29964E-01  0.33897E-01  0.38068E-01  0.42451E-01
  0.46489E-01  0.49343E-01  0.50368E-01  0.49343E-01  0.46489E-01  0.42451E-01
  0.38068E-01  0.33897E-01  0.29964E-01  0.26070E-01  0.22205E-01  0.18532E-01
  0.15167E-01  0.12232E-01  0.10009E-01  0.87228E-02  0.82433E-02  0.82578E-02
  0.14604E-01  0.21949E-01  0.27123E-01  0.29698E-01  0.29698E-01  0.27123E-01
  0.21949E-01  0.14604E-01  0.60161E-02 -0.29342E-02 -0.11667E-01 -0.19531E-01
 -0.25748E-01 -0.30156E-01 -0.33578E-01 -0.36751E-01 -0.39111E-01 -0.39482E-01
 -0.38071E-01 -0.36663E-01 -0.36054E-01 -0.34051E-01 -0.27421E-01 -0.16046E-01
 -0.41408E-02  0.32622E-02  0.46045E-02  0.23220E-02 -0.12046E-03 -0.86732E-03
  0.18892E-03  0.25860E-02  0.59971E-02  0.10240E-01  0.15132E-01  0.20333E-01
  0.25285E-01  0.29582E-01  0.33481E-01  0.37663E-01  0.42244E-01  0.46352E-01
  0.49010E-01  0.50117E-01  0.50117E-01  0.49010E-01  0.46352E-01  0.42244E-01
  0.37663E-01  0.33481E-01  0.29582E-01  0.25285E-01  0.20333E-01  0.15132E-01
  0.10240E-01  0.59971E-02  0.25860E-02  0.18891E-03 -0.86732E-03 -0.12047E-03
  0.24880E-01  0.31273E-01  0.34948E-01  0.36091E-01  0.34948E-01  0.31273E-01
  0.24880E-01  0.16369E-01  0.68834E-02 -0.26174E-02 -0.11387E-01 -0.18590E-01
 -0.23746E-01 -0.27400E-01 -0.30473E-01 -0.32749E-01 -0.33005E-01 -0.31255E-01
 -0.29822E-01 -0.30696E-01 -0.32050E-01 -0.29134E-01 -0.19597E-01 -0.70840E-02
  0.15315E-02  0.23305E-02 -0.27949E-02 -0.88456E-02 -0.12062E-01 -0.11603E-01
 -0.84015E-02 -0.35600E-02  0.23122E-02  0.89724E-02  0.16042E-01  0.22665E-01
  0.27976E-01  0.32076E-01  0.35987E-01  0.40128E-01  0.43291E-01  0.44007E-01
  0.42787E-01  0.41935E-01  0.42787E-01  0.44007E-01  0.43291E-01  0.40128E-01
  0.35987E-01  0.32076E-01  0.27976E-01  0.22665E-01  0.16042E-01  0.89724E-02
  0.23122E-02 -0.35600E-02 -0.84015E-02 -0.11603E-01 -0.12062E-01 -0.88456E-02
  0.32651E-01  0.36938E-01  0.38672E-01  0.38672E-01  0.36938E-01  0.32651E-01
  0.25485E-01  0.16312E-01  0.65025E-02 -0.28251E-02 -0.10749E-01 -0.16560E-01
 -0.20368E-01 -0.23014E-01 -0.24717E-01 -0.24464E-01 -0.21831E-01 -0.18917E-01
 -0.18686E-01 -0.20822E-01 -0.20799E-01 -0.14697E-01 -0.45220E-02  0.27193E-02
  0.15501E-02 -0.71286E-02 -0.17615E-01 -0.24552E-01 -0.26027E-01 -0.22924E-01
 -0.16898E-01 -0.91651E-02 -0.34654E-03  0.90397E-02  0.17967E-01  0.25092E-01
  0.29971E-01  0.33611E-01  0.36876E-01  0.38510E-01  0.36186E-01  0.30198E-01
  0.24885E-01  0.24885E-01  0.30198E-01  0.36186E-01  0.38510E-01  0.36876E-01
  0.33611E-01  0.29971E-01  0.25092E-01  0.17967E-01  0.90397E-02 -0.34654E-03
 -0.91652E-02 -0.16898E-01 -0.22924E-01 -0.26027E-01 -0.24552E-01 -0.17615E-01
  0.35332E-01  0.36784E-01  0.36969E-01  0.36784E-01  0.35332E-01  0.31094E-01
  0.23803E-01  0.14707E-01  0.54287E-02 -0.27638E-02 -0.89638E-02 -0.12872E-01
 -0.15004E-01 -0.15827E-01 -0.14739E-01 -0.10982E-01 -0.57935E-02 -0.21931E-02
 -0.14724E-02 -0.94823E-03  0.29223E-02  0.91404E-02  0.11605E-01  0.49252E-02
 -0.99469E-02 -0.26497E-01 -0.38204E-01 -0.42525E-01 -0.40418E-01 -0.33880E-01
 -0.24490E-01 -0.13279E-01 -0.11027E-02  0.10815E-01  0.20732E-01  0.27414E-01
  0.31325E-01  0.33675E-01  0.33774E-01  0.28734E-01  0.17564E-01  0.50925E-02
 -0.44375E-03  0.50925E-02  0.17564E-01  0.28734E-01  0.33774E-01  0.33675E-01
  0.31325E-01  0.27414E-01  0.20732E-01  0.10815E-01 -0.11027E-02 -0.13279E-01
 -0.24490E-01 -0.33880E-01 -0.40418E-01 -0.42525E-01 -0.38204E-01 -0.26497E-01
  0.30814E-01  0.29973E-01  0.29973E-01  0.30814E-01  0.30343E-01  0.26667E-01
  0.19951E-01  0.11873E-01  0.41953E-02 -0.18493E-02 -0.56242E-02 -0.72254E-02
 -0.70919E-02 -0.50214E-02 -0.21371E-03  0.70554E-02  0.14607E-01  0.20441E-01
  0.25151E-01  0.30406E-01  0.34572E-01  0.31755E-01  0.17078E-01 -0.73720E-02
 -0.33112E-01 -0.51740E-01 -0.60119E-01 -0.59835E-01 -0.53614E-01 -0.43266E-01
 -0.29926E-01 -0.14747E-01  0.73640E-03  0.14443E-01  0.24344E-01  0.29855E-01
  0.31987E-01  0.30988E-01  0.24477E-01  0.10143E-01 -0.87853E-02 -0.22703E-01
 -0.22703E-01 -0.87854E-02  0.10143E-01  0.24477E-01  0.30988E-01  0.31987E-01
  0.29855E-01  0.24344E-01  0.14443E-01  0.73640E-03 -0.14747E-01 -0.29926E-01
 -0.43266E-01 -0.53614E-01 -0.59835E-01 -0.60119E-01 -0.51740E-01 -0.33112E-01
  0.19870E-01  0.18525E-01  0.19870E-01  0.22335E-01  0.22896E-01  0.20028E-01
  0.14602E-01  0.85415E-02  0.34553E-02  0.29942E-03 -0.62183E-03  0.48403E-03
  0.35711E-02  0.92170E-02  0.17755E-01  0.28130E-01  0.38626E-01  0.48670E-01
  0.58179E-01  0.64163E-01  0.59734E-01  0.39234E-01  0.50443E-02 -0.32138E-01
 -0.60738E-01 -0.75693E-01 -0.78872E-01 -0.74235E-01 -0.64178E-01 -0.49689E-01
 -0.31883E-01 -0.12611E-01  0.56465E-02  0.20175E-01  0.29164E-01  0.32684E-01
  0.31536E-01  0.24765E-01  0.10023E-01 -0.11734E-01 -0.32572E-01 -0.41304E-01
 -0.32572E-01 -0.11734E-01  0.10023E-01  0.24765E-01  0.31536E-01  0.32684E-01
  0.29164E-01  0.20175E-01  0.56465E-02 -0.12611E-01 -0.31883E-01 -0.49689E-01
 -0.64178E-01 -0.74235E-01 -0.78872E-01 -0.75693E-01 -0.60738E-01 -0.32138E-01
  0.64884E-02  0.64884E-02  0.97394E-02  0.13361E-01  0.14493E-01  0.12618E-01
  0.91695E-02  0.58783E-02  0.39358E-02  0.39808E-02  0.61417E-02  0.10308E-01
  0.16688E-01  0.25711E-01  0.37150E-01  0.49995E-01  0.63474E-01  0.76843E-01
  0.86656E-01  0.85272E-01  0.65156E-01  0.26593E-01 -0.19732E-01 -0.59404E-01
 -0.83829E-01 -0.93342E-01 -0.92566E-01 -0.84830E-01 -0.71070E-01 -0.51928E-01
 -0.29265E-01 -0.60787E-02  0.14148E-01  0.28410E-01  0.35418E-01  0.35668E-01
  0.29560E-01  0.16085E-01 -0.48562E-02 -0.28310E-01 -0.44300E-01 -0.44300E-01
 -0.28310E-01 -0.48562E-02  0.16085E-01  0.29560E-01  0.35668E-01  0.35418E-01
  0.28410E-01  0.14148E-01 -0.60787E-02 -0.29265E-01 -0.51928E-01 -0.71070E-01
 -0.84830E-01 -0.92566E-01 -0.93342E-01 -0.83829E-01 -0.59404E-01 -0.19732E-01
 -0.48100E-02 -0.28011E-02  0.16291E-02  0.53663E-02  0.66877E-02  0.61129E-02
  0.50890E-02  0.48004E-02  0.60537E-02  0.93336E-02  0.14671E-01  0.21903E-01
  0.31095E-01  0.42309E-01  0.55155E-01  0.69076E-01  0.83415E-01  0.95523E-01
  0.98684E-01  0.84415E-01  0.49559E-01  0.14115E-02 -0.45744E-01 -0.80121E-01
 -0.98603E-01 -0.10459E+00 -0.10185E+00 -0.91485E-01 -0.73399E-01 -0.48798E-01
 -0.20932E-01  0.56871E-02  0.26632E-01  0.39074E-01  0.42577E-01  0.38115E-01
  0.26334E-01  0.77116E-02 -0.14788E-01 -0.34064E-01 -0.41753E-01 -0.34064E-01
 -0.14788E-01  0.77116E-02  0.26334E-01  0.38115E-01  0.42577E-01  0.39074E-01
  0.26632E-01  0.56871E-02 -0.20932E-01 -0.48798E-01 -0.73399E-01 -0.91485E-01
 -0.10185E+00 -0.10459E+00 -0.98603E-01 -0.80121E-01 -0.45744E-01  0.14115E-02
 -0.11970E-01 -0.86187E-02 -0.42717E-02 -0.11560E-02  0.41356E-03  0.14178E-02
  0.28091E-02  0.52827E-02  0.95388E-02  0.15949E-01  0.24205E-01  0.33757E-01
  0.44374E-01  0.55983E-01  0.68354E-01  0.81016E-01  0.92379E-01  0.97926E-01
  0.90441E-01  0.64606E-01  0.22786E-01 -0.24538E-01 -0.65230E-01 -0.92725E-01
 -0.10732E+00 -0.11185E+00 -0.10749E+00 -0.93488E-01 -0.69717E-01 -0.38698E-01
 -0.57004E-02  0.22980E-01  0.42477E-01  0.51000E-01  0.49438E-01  0.39563E-01
  0.23048E-01  0.24940E-02 -0.17152E-01 -0.29375E-01 -0.29375E-01 -0.17152E-01
  0.24940E-02  0.23048E-01  0.39563E-01  0.49438E-01  0.51000E-01  0.42477E-01
  0.22980E-01 -0.57004E-02 -0.38698E-01 -0.69717E-01 -0.93488E-01 -0.10749E+00
 -0.11185E+00 -0.10732E+00 -0.92725E-01 -0.65230E-01 -0.24538E-01  0.22786E-01
 -0.15783E-01 -0.12250E-01 -0.88444E-02 -0.64026E-02 -0.42956E-02 -0.17527E-02
  0.16281E-02  0.64393E-02  0.13412E-01  0.22509E-01  0.32738E-01  0.43133E-01
  0.53458E-01  0.63816E-01  0.73990E-01  0.82965E-01  0.88127E-01  0.84770E-01
  0.67950E-01  0.36557E-01 -0.41798E-02 -0.45054E-01 -0.78275E-01 -0.10080E+00
 -0.11314E+00 -0.11599E+00 -0.10841E+00 -0.88848E-01 -0.57899E-01 -0.20204E-01
  0.16379E-01  0.44231E-01  0.59394E-01  0.62145E-01  0.54896E-01  0.40272E-01
  0.21203E-01  0.18539E-02 -0.12672E-01 -0.18072E-01 -0.12672E-01  0.18539E-02
  0.21203E-01  0.40272E-01  0.54896E-01  0.62145E-01  0.59394E-01  0.44231E-01
  0.16379E-01 -0.20204E-01 -0.57899E-01 -0.88848E-01 -0.10841E+00 -0.11599E+00
 -0.11314E+00 -0.10080E+00 -0.78275E-01 -0.45054E-01 -0.41798E-02  0.36557E-01
 -0.17939E-01 -0.15067E-01 -0.12755E-01 -0.10645E-01 -0.78918E-02 -0.42303E-02
  0.54706E-03  0.72263E-02  0.16337E-01  0.27060E-01  0.37759E-01  0.47482E-01
  0.56349E-01  0.64568E-01  0.71504E-01  0.75437E-01  0.73599E-01  0.62734E-01
  0.40882E-01  0.94660E-02 -0.26469E-01 -0.60550E-01 -0.87964E-01 -0.10660E+00
 -0.11596E+00 -0.11517E+00 -0.10212E+00 -0.75188E-01 -0.36622E-01  0.59434E-02
  0.42390E-01  0.65547E-01  0.74054E-01  0.70553E-01  0.58418E-01  0.40808E-01
  0.21619E-01  0.54980E-02 -0.35989E-02 -0.35989E-02  0.54980E-02  0.21619E-01
  0.40808E-01  0.58418E-01  0.70553E-01  0.74054E-01  0.65547E-01  0.42390E-01
  0.59435E-02 -0.36622E-01 -0.75188E-01 -0.10212E+00 -0.11517E+00 -0.11596E+00
 -0.10660E+00 -0.87964E-01 -0.60550E-01 -0.26469E-01  0.94660E-02  0.40882E-01
 -0.19294E-01 -0.17403E-01 -0.15908E-01 -0.13836E-01 -0.10667E-01 -0.64975E-02
 -0.92066E-03  0.69813E-02  0.17174E-01  0.28073E-01  0.37914E-01  0.46200E-01
  0.53332E-01  0.59221E-01  0.62644E-01  0.61654E-01  0.54237E-01  0.38971E-01
  0.15847E-01 -0.13117E-01 -0.44100E-01 -0.72602E-01 -0.94893E-01 -0.10888E+00
 -0.11349E+00 -0.10699E+00 -0.86686E-01 -0.51854E-01 -0.76165E-02  0.35407E-01
  0.66841E-01  0.82329E-01  0.83740E-01  0.75083E-01  0.59767E-01  0.41266E-01
  0.23994E-01  0.12092E-01  0.79153E-02  0.12092E-01  0.23994E-01  0.41266E-01
  0.59767E-01  0.75083E-01  0.83740E-01  0.82329E-01  0.66841E-01  0.35407E-01
 -0.76165E-02 -0.51854E-01 -0.86686E-01 -0.10699E+00 -0.11349E+00 -0.10888E+00
 -0.94893E-01 -0.72602E-01 -0.44100E-01 -0.13117E-01  0.15847E-01  0.38971E-01
 -0.19853E-01 -0.18896E-01 -0.17856E-01 -0.15780E-01 -0.12644E-01 -0.85539E-02
 -0.27658E-02  0.54870E-02  0.15522E-01  0.25464E-01  0.33928E-01  0.40806E-01
  0.46325E-01  0.49895E-01  0.50067E-01  0.45270E-01  0.34465E-01  0.17449E-01
 -0.50007E-02 -0.31001E-01 -0.57504E-01 -0.80760E-01 -0.97505E-01 -0.10584E+00
 -0.10439E+00 -0.90781E-01 -0.62619E-01 -0.21627E-01  0.23717E-01  0.61701E-01
  0.84552E-01  0.91856E-01  0.87527E-01  0.75429E-01  0.58689E-01  0.41220E-01
  0.27374E-01  0.20004E-01  0.20004E-01  0.27374E-01  0.41220E-01  0.58689E-01
  0.75428E-01  0.87527E-01  0.91856E-01  0.84552E-01  0.61701E-01  0.23717E-01
 -0.21627E-01 -0.62619E-01 -0.90781E-01 -0.10439E+00 -0.10584E+00 -0.97505E-01
 -0.80760E-01 -0.57504E-01 -0.31001E-01 -0.50007E-02  0.17449E-01  0.34465E-01
 -0.19605E-01 -0.19325E-01 -0.18488E-01 -0.16604E-01 -0.13956E-01 -0.10362E-01
 -0.48734E-02  0.29166E-02  0.11960E-01  0.20588E-01  0.27811E-01  0.33447E-01
  0.37287E-01  0.38556E-01  0.36087E-01  0.28854E-01  0.16449E-01 -0.72578E-03
 -0.21575E-01 -0.44328E-01 -0.66335E-01 -0.84315E-01 -0.95401E-01 -0.97706E-01
 -0.89394E-01 -0.68112E-01 -0.33378E-01  0.97036E-02  0.50744E-01  0.79910E-01
  0.93636E-01  0.94356E-01  0.86064E-01  0.71897E-01  0.55252E-01  0.40436E-01
  0.30855E-01  0.27656E-01  0.30855E-01  0.40436E-01  0.55252E-01  0.71897E-01
  0.86064E-01  0.94356E-01  0.93636E-01  0.79910E-01  0.50744E-01  0.97036E-02
 -0.33378E-01 -0.68112E-01 -0.89394E-01 -0.97706E-01 -0.95401E-01 -0.84315E-01
 -0.66335E-01 -0.44328E-01 -0.21575E-01 -0.72578E-03  0.16449E-01  0.28854E-01
 -0.18794E-01 -0.18875E-01 -0.18217E-01 -0.16828E-01 -0.14919E-01 -0.11946E-01
 -0.70258E-02 -0.10921E-03  0.77580E-02  0.15232E-01  0.21357E-01  0.25601E-01
  0.27587E-01  0.26810E-01  0.22489E-01  0.13889E-01  0.96559E-03 -0.15440E-01
 -0.34055E-01 -0.53355E-01 -0.71108E-01 -0.84304E-01 -0.90020E-01 -0.86013E-01
 -0.70427E-01 -0.42349E-01 -0.43205E-02  0.36101E-01  0.69290E-01  0.89158E-01
  0.95564E-01  0.91639E-01  0.80529E-01  0.65349E-01  0.50243E-01  0.39156E-01
  0.33726E-01  0.33726E-01  0.39156E-01  0.50243E-01  0.65349E-01  0.80529E-01
  0.91639E-01  0.95564E-01  0.89158E-01  0.69290E-01  0.36101E-01 -0.43205E-02
 -0.42349E-01 -0.70427E-01 -0.86013E-01 -0.90020E-01 -0.84304E-01 -0.71108E-01
 -0.53355E-01 -0.34055E-01 -0.15440E-01  0.96558E-03  0.13889E-01  0.22489E-01
 -0.17486E-01 -0.17752E-01 -0.17462E-01 -0.16768E-01 -0.15528E-01 -0.13033E-01
 -0.86857E-02 -0.26428E-02  0.42193E-02  0.10673E-01  0.15555E-01  0.18198E-01
  0.18475E-01  0.16191E-01  0.10644E-01  0.12324E-02 -0.11642E-01 -0.26762E-01
 -0.43008E-01 -0.59300E-01 -0.73550E-01 -0.82454E-01 -0.82713E-01 -0.72146E-01
 -0.49998E-01 -0.17718E-01  0.19698E-01  0.54347E-01  0.79162E-01  0.91439E-01
  0.92521E-01  0.85065E-01  0.71936E-01  0.57015E-01  0.44679E-01  0.37448E-01
  0.35225E-01  0.37448E-01  0.44679E-01  0.57015E-01  0.71936E-01  0.85065E-01
  0.92521E-01  0.91439E-01  0.79162E-01  0.54347E-01  0.19698E-01 -0.17718E-01
 -0.49998E-01 -0.72146E-01 -0.82713E-01 -0.82454E-01 -0.73550E-01 -0.59300E-01
 -0.43008E-01 -0.26762E-01 -0.11642E-01  0.12324E-02  0.10644E-01  0.16191E-01
 -0.15300E-01 -0.15819E-01 -0.16123E-01 -0.16102E-01 -0.15285E-01 -0.13084E-01
 -0.92105E-02 -0.38604E-02  0.21716E-02  0.75493E-02  0.11021E-01  0.12168E-01
  0.11171E-01  0.77981E-02  0.12345E-02 -0.87977E-02 -0.21369E-01 -0.35231E-01
 -0.49694E-01 -0.63798E-01 -0.74969E-01 -0.79425E-01 -0.74049E-01 -0.57621E-01
 -0.31014E-01  0.24239E-02  0.36667E-01  0.64815E-01  0.82341E-01  0.88586E-01
  0.85318E-01  0.75047E-01  0.61131E-01  0.47900E-01  0.38819E-01  0.34687E-01
  0.34687E-01  0.38819E-01  0.47900E-01  0.61131E-01  0.75047E-01  0.85318E-01
  0.88586E-01  0.82341E-01  0.64815E-01  0.36667E-01  0.24239E-02 -0.31014E-01
 -0.57621E-01 -0.74049E-01 -0.79425E-01 -0.74969E-01 -0.63798E-01 -0.49694E-01
 -0.35231E-01 -0.21369E-01 -0.87977E-02  0.12345E-02  0.77981E-02  0.11171E-01
 -0.11824E-01 -0.12797E-01 -0.13808E-01 -0.14359E-01 -0.13855E-01 -0.11898E-01
 -0.83376E-02 -0.34098E-02  0.19210E-02  0.61560E-02  0.82454E-02  0.81625E-02
  0.61343E-02  0.16784E-02 -0.59352E-02 -0.16478E-01 -0.28791E-01 -0.41944E-01
 -0.55393E-01 -0.67628E-01 -0.75471E-01 -0.75358E-01 -0.65097E-01 -0.44497E-01
 -0.15488E-01  0.17431E-01  0.47744E-01  0.69554E-01  0.80334E-01  0.80993E-01
  0.73947E-01  0.62061E-01  0.48930E-01  0.38256E-01  0.32039E-01  0.30128E-01
  0.32039E-01  0.38256E-01  0.48930E-01  0.62061E-01  0.73947E-01  0.80993E-01
  0.80334E-01  0.69554E-01  0.47744E-01  0.17431E-01 -0.15488E-01 -0.44497E-01
 -0.65097E-01 -0.75358E-01 -0.75471E-01 -0.67628E-01 -0.55393E-01 -0.41944E-01
 -0.28791E-01 -0.16478E-01 -0.59352E-02  0.16784E-02  0.61343E-02  0.81625E-02
 -0.71940E-02 -0.87845E-02 -0.10563E-01 -0.11736E-01 -0.11609E-01 -0.97682E-02
 -0.61284E-02 -0.12525E-02  0.34663E-02  0.64993E-02  0.72310E-02  0.59487E-02
  0.27546E-02 -0.29304E-02 -0.11521E-01 -0.22493E-01 -0.34864E-01 -0.47877E-01
 -0.60526E-01 -0.70652E-01 -0.75208E-01 -0.71441E-01 -0.57690E-01 -0.33924E-01
 -0.28953E-02  0.29254E-01  0.55093E-01  0.69871E-01  0.73507E-01  0.68888E-01
  0.59190E-01  0.47219E-01  0.35905E-01  0.27753E-01  0.23756E-01  0.23756E-01
  0.27753E-01  0.35905E-01  0.47219E-01  0.59190E-01  0.68888E-01  0.73507E-01
  0.69871E-01  0.55093E-01  0.29254E-01 -0.28953E-02 -0.33924E-01 -0.57690E-01
 -0.71441E-01 -0.75208E-01 -0.70652E-01 -0.60526E-01 -0.47877E-01 -0.34864E-01
 -0.22493E-01 -0.11521E-01 -0.29304E-02  0.27546E-02  0.59487E-02  0.72310E-02
 -0.20180E-02 -0.43127E-02 -0.69663E-02 -0.88501E-02 -0.89318E-02 -0.66740E-02
 -0.23742E-02  0.26549E-02  0.65805E-02  0.81653E-02  0.73745E-02  0.47130E-02
  0.20028E-03 -0.66528E-02 -0.16044E-01 -0.27504E-01 -0.40210E-01 -0.53128E-01
 -0.64746E-01 -0.72993E-01 -0.75435E-01 -0.69346E-01 -0.52317E-01 -0.24472E-01
  0.91665E-02  0.39654E-01  0.59156E-01  0.65554E-01  0.62120E-01  0.53433E-01
  0.42557E-01  0.31451E-01  0.22073E-01  0.16051E-01  0.14026E-01  0.16051E-01
  0.22073E-01  0.31451E-01  0.42557E-01  0.53433E-01  0.62120E-01  0.65554E-01
  0.59156E-01  0.39654E-01  0.91665E-02 -0.24472E-01 -0.52317E-01 -0.69346E-01
 -0.75435E-01 -0.72993E-01 -0.64746E-01 -0.53128E-01 -0.40210E-01 -0.27504E-01
 -0.16044E-01 -0.66528E-02  0.20028E-03  0.47130E-02  0.73745E-02  0.81653E-02