       #
       # Generated by the Wannier90 code http://www.wannier.org
       # On 28Aug2024 at 16:10:53 
       #
CRYSTAL
PRIMVEC
   2.7382345   2.7382345   0.0000000
   0.0000000   2.7382345   2.7382345
   2.7382345   0.0000000   2.7382345
CONVVEC
   2.7382345   2.7382345   0.0000000
   0.0000000   2.7382345   2.7382345
   2.7382345   0.0000000   2.7382345
PRIMCOORD
     2  1
Si      0.0000000   0.0000000   0.0000000
Si      1.3691172   1.3691172   1.3691172


BEGIN_BLOCK_DATAGRID_3D
3D_field
BEGIN_DATAGRID_3D_UNKNOWN
    40    40    40
   -5.750292   -5.750292   -5.750292
   5.3395573   5.3395573   0.0000000
   0.0000000   5.3395573   5.3395573
   5.3395573   0.0000000   5.3395573
 -0.61572E-02  0.77859E-03  0.12091E-01  0.25456E-01  0.36729E-01  0.41986E-01
  0.39865E-01  0.32160E-01  0.22134E-01  0.12356E-01  0.40445E-02 -0.22189E-02
 -0.59837E-02 -0.71686E-02 -0.61600E-02 -0.34159E-02  0.66188E-03  0.53554E-02
  0.96771E-02  0.13147E-01  0.16099E-01  0.18768E-01  0.20394E-01  0.19876E-01
  0.17246E-01  0.13978E-01  0.11775E-01  0.11434E-01  0.12885E-01  0.15691E-01
  0.19152E-01  0.22241E-01  0.23876E-01  0.23289E-01  0.20120E-01  0.14355E-01
  0.62883E-02 -0.36168E-02 -0.14741E-01 -0.25592E-01  0.77859E-03  0.12512E-01
  0.27223E-01  0.40853E-01  0.48967E-01  0.49169E-01  0.42279E-01  0.31348E-01
  0.19558E-01  0.89176E-02  0.44926E-03 -0.51972E-02 -0.77562E-02 -0.76040E-02
 -0.55023E-02 -0.21045E-02  0.20468E-02  0.62092E-02  0.95276E-02  0.11412E-01
  0.11537E-01  0.96103E-02  0.56659E-02  0.70669E-03 -0.34488E-02 -0.52899E-02
 -0.44172E-02 -0.12025E-02  0.38426E-02  0.10016E-01  0.16158E-01  0.21000E-01
  0.23757E-01  0.24084E-01  0.21709E-01  0.16611E-01  0.94091E-02  0.10960E-02
 -0.74915E-02 -0.15159E-01  0.12091E-01  0.27223E-01  0.42270E-01  0.52598E-01
  0.55139E-01  0.49829E-01  0.39132E-01  0.26292E-01  0.13846E-01  0.33332E-02
 -0.42854E-02 -0.84834E-02 -0.94313E-02 -0.79833E-02 -0.51391E-02 -0.15978E-02
  0.21119E-02  0.52418E-02  0.67023E-02  0.53105E-02  0.34711E-03 -0.76646E-02
 -0.16549E-01 -0.23289E-01 -0.25784E-01 -0.23901E-01 -0.18773E-01 -0.11473E-01
 -0.27465E-02  0.63647E-02  0.14474E-01  0.20593E-01  0.24392E-01  0.25612E-01
  0.23919E-01  0.19656E-01  0.14096E-01  0.83714E-02  0.26499E-02 -0.27797E-02
  0.25456E-01  0.40853E-01  0.52598E-01  0.57156E-01  0.53719E-01  0.44092E-01
  0.31255E-01  0.17925E-01  0.59885E-02 -0.33247E-02 -0.92337E-02 -0.11558E-01
 -0.10901E-01 -0.84044E-02 -0.51570E-02 -0.18639E-02  0.91645E-03  0.22408E-02
  0.58793E-03 -0.54908E-02 -0.16011E-01 -0.28567E-01 -0.39062E-01 -0.44069E-01
 -0.42817E-01 -0.36878E-01 -0.28202E-01 -0.17896E-01 -0.67230E-02  0.41466E-02
  0.13471E-01  0.20590E-01  0.25206E-01  0.26905E-01  0.25631E-01  0.22454E-01
  0.18927E-01  0.15463E-01  0.11204E-01  0.60251E-02  0.36729E-01  0.48967E-01
  0.55139E-01  0.53719E-01  0.45751E-01  0.33775E-01  0.20480E-01  0.79506E-02
 -0.24179E-02 -0.97212E-02 -0.13482E-01 -0.13828E-01 -0.11629E-01 -0.82336E-02
 -0.48744E-02 -0.23112E-02 -0.11412E-02 -0.24557E-02 -0.78550E-02 -0.18233E-01
 -0.32152E-01 -0.45637E-01 -0.54228E-01 -0.55753E-01 -0.51190E-01 -0.42967E-01
 -0.32803E-01 -0.21335E-01 -0.91651E-02  0.25675E-02  0.12694E-01  0.20449E-01
  0.25284E-01  0.26912E-01  0.25952E-01  0.23913E-01  0.21815E-01  0.19078E-01
  0.14537E-01  0.85931E-02  0.41986E-01  0.49169E-01  0.49829E-01  0.44092E-01
  0.33775E-01  0.21326E-01  0.89664E-02 -0.17230E-02 -0.97833E-02 -0.14639E-01
 -0.16020E-01 -0.14252E-01 -0.10514E-01 -0.64963E-02 -0.35654E-02 -0.23569E-02
 -0.33024E-02 -0.73681E-02 -0.15731E-01 -0.28251E-01 -0.42303E-01 -0.53636E-01
 -0.58939E-01 -0.57788E-01 -0.52121E-01 -0.44027E-01 -0.34316E-01 -0.23044E-01
 -0.10735E-01  0.13206E-02  0.11687E-01  0.19303E-01  0.23637E-01  0.24923E-01
  0.24261E-01  0.22885E-01  0.20985E-01  0.17655E-01  0.12372E-01  0.62601E-02
  0.39865E-01  0.42279E-01  0.39132E-01  0.31255E-01  0.20480E-01  0.89664E-02
 -0.14548E-02 -0.96410E-02 -0.14990E-01 -0.17095E-01 -0.15829E-01 -0.11894E-01
 -0.69843E-02 -0.30182E-02 -0.11119E-02 -0.14785E-02 -0.42982E-02 -0.10282E-01
 -0.19935E-01 -0.32179E-01 -0.44052E-01 -0.52214E-01 -0.55028E-01 -0.53227E-01
 -0.48596E-01 -0.42179E-01 -0.33855E-01 -0.23405E-01 -0.11587E-01 -0.52150E-04
  0.95199E-02  0.16115E-01  0.19584E-01  0.20548E-01  0.20011E-01  0.18628E-01
  0.16240E-01  0.12355E-01  0.71827E-02  0.19172E-02  0.32160E-01  0.31348E-01
  0.26292E-01  0.17925E-01  0.79506E-02 -0.17230E-02 -0.96410E-02 -0.15008E-01
 -0.17371E-01 -0.16445E-01 -0.12529E-01 -0.69739E-02 -0.17737E-02  0.15201E-02
  0.24181E-02  0.99932E-03 -0.29104E-02 -0.97161E-02 -0.19141E-01 -0.29558E-01
 -0.38505E-01 -0.44087E-01 -0.45993E-01 -0.45190E-01 -0.42632E-01 -0.38328E-01
 -0.31685E-01 -0.22663E-01 -0.12390E-01 -0.26450E-02  0.51250E-02  0.10302E-01
  0.12992E-01  0.13731E-01  0.13176E-01  0.11726E-01  0.93352E-02  0.58666E-02
  0.16308E-02 -0.26168E-02  0.22134E-01  0.19558E-01  0.13846E-01  0.59885E-02
 -0.24179E-02 -0.97833E-02 -0.14990E-01 -0.17371E-01 -0.16562E-01 -0.12729E-01
 -0.69271E-02 -0.87502E-03  0.38900E-02  0.66304E-02  0.71890E-02  0.54070E-02
  0.10499E-02 -0.56807E-02 -0.13767E-01 -0.21657E-01 -0.27990E-01 -0.32194E-01
 -0.34514E-01 -0.35466E-01 -0.35124E-01 -0.32954E-01 -0.28442E-01 -0.21886E-01
 -0.14443E-01 -0.74361E-02 -0.17299E-02  0.22903E-02  0.45430E-02  0.52807E-02
  0.50484E-02  0.42516E-02  0.27831E-02  0.31684E-03 -0.30709E-02 -0.68673E-02
  0.12356E-01  0.89176E-02  0.33332E-02 -0.33247E-02 -0.97212E-02 -0.14639E-01
 -0.17095E-01 -0.16445E-01 -0.12729E-01 -0.69253E-02 -0.55554E-03  0.51314E-02
  0.95420E-02  0.12347E-01  0.13029E-01  0.11127E-01  0.68529E-02  0.11947E-02
 -0.46911E-02 -0.10093E-01 -0.14806E-01 -0.18866E-01 -0.22328E-01 -0.25115E-01
 -0.26877E-01 -0.27105E-01 -0.25551E-01 -0.22504E-01 -0.18548E-01 -0.14207E-01
 -0.99703E-02 -0.64619E-02 -0.41562E-02 -0.28989E-02 -0.21011E-02 -0.15820E-02
 -0.19111E-02 -0.36869E-02 -0.67637E-02 -0.10544E-01  0.40445E-02  0.44927E-03
 -0.42854E-02 -0.92337E-02 -0.13482E-01 -0.16020E-01 -0.15829E-01 -0.12529E-01
 -0.69271E-02 -0.55554E-03  0.54477E-02  0.10792E-01  0.15335E-01  0.18368E-01
  0.19015E-01  0.17241E-01  0.14039E-01  0.10497E-01  0.69390E-02  0.30856E-02
 -0.12410E-02 -0.58604E-02 -0.10500E-01 -0.14963E-01 -0.19001E-01 -0.22258E-01
 -0.24400E-01 -0.25143E-01 -0.24205E-01 -0.21553E-01 -0.17822E-01 -0.14126E-01
 -0.11181E-01 -0.88118E-02 -0.66254E-02 -0.49612E-02 -0.47179E-02 -0.62945E-02
 -0.92271E-02 -0.13020E-01 -0.22189E-02 -0.51972E-02 -0.84834E-02 -0.11558E-01
 -0.13828E-01 -0.14252E-01 -0.11894E-01 -0.69739E-02 -0.87502E-03  0.51314E-02
  0.10792E-01  0.16239E-01  0.20908E-01  0.23736E-01  0.24391E-01  0.23712E-01
  0.22684E-01  0.21365E-01  0.19126E-01  0.15645E-01  0.11234E-01  0.62424E-02
  0.61572E-03 -0.58072E-02 -0.12803E-01 -0.19696E-01 -0.25549E-01 -0.29301E-01
 -0.30096E-01 -0.27912E-01 -0.23844E-01 -0.19376E-01 -0.15303E-01 -0.11608E-01
 -0.83534E-02 -0.62165E-02 -0.58670E-02 -0.72354E-02 -0.98623E-02 -0.13764E-01
 -0.59837E-02 -0.77562E-02 -0.94313E-02 -0.10901E-01 -0.11629E-01 -0.10514E-01
 -0.69843E-02 -0.17737E-02  0.38900E-02  0.95420E-02  0.15335E-01  0.20908E-01
  0.25250E-01  0.27900E-01  0.29560E-01  0.31067E-01  0.32181E-01  0.31945E-01
  0.29989E-01  0.26843E-01  0.22918E-01  0.17732E-01  0.10473E-01  0.10476E-02
 -0.96273E-02 -0.20078E-01 -0.28691E-01 -0.33963E-01 -0.35028E-01 -0.32279E-01
 -0.27243E-01 -0.21563E-01 -0.16143E-01 -0.11319E-01 -0.75089E-02 -0.52623E-02
 -0.47479E-02 -0.57235E-02 -0.81842E-02 -0.12641E-01 -0.71686E-02 -0.76040E-02
 -0.79833E-02 -0.84044E-02 -0.82336E-02 -0.64963E-02 -0.30182E-02  0.15201E-02
  0.66304E-02  0.12347E-01  0.18368E-01  0.23736E-01  0.27900E-01  0.31486E-01
  0.35285E-01  0.38845E-01  0.40861E-01  0.40856E-01  0.39629E-01  0.37764E-01
  0.34362E-01  0.27777E-01  0.17339E-01  0.40286E-02 -0.10205E-01 -0.23242E-01
 -0.33084E-01 -0.38171E-01 -0.38062E-01 -0.33768E-01 -0.27168E-01 -0.19974E-01
 -0.13238E-01 -0.75908E-02 -0.35056E-02 -0.11823E-02 -0.48405E-03 -0.13538E-02
 -0.42363E-02 -0.97679E-02 -0.61600E-02 -0.55023E-02 -0.51391E-02 -0.51570E-02
 -0.48744E-02 -0.35654E-02 -0.11119E-02  0.24181E-02  0.71890E-02  0.13029E-01
  0.19015E-01  0.24391E-01  0.29560E-01  0.35285E-01  0.41093E-01  0.45453E-01
  0.47694E-01  0.48751E-01  0.49423E-01  0.48590E-01  0.43910E-01  0.34047E-01
  0.19696E-01  0.28416E-02 -0.14125E-01 -0.28571E-01 -0.37949E-01 -0.40850E-01
 -0.37797E-01 -0.30799E-01 -0.22103E-01 -0.13367E-01 -0.56464E-02  0.36570E-03
  0.43428E-02  0.63869E-02  0.67472E-02  0.53036E-02  0.14274E-02 -0.54781E-02
 -0.34159E-02 -0.21045E-02 -0.15978E-02 -0.18639E-02 -0.23112E-02 -0.23569E-02
 -0.14785E-02  0.99931E-03  0.54070E-02  0.11127E-01  0.17241E-01  0.23712E-01
  0.31067E-01  0.38845E-01  0.45453E-01  0.50043E-01  0.53540E-01  0.56876E-01
  0.58858E-01  0.56800E-01  0.49025E-01  0.35847E-01  0.18511E-01 -0.13626E-02
 -0.20856E-01 -0.35639E-01 -0.42150E-01 -0.40009E-01 -0.31897E-01 -0.21263E-01
 -0.10486E-01 -0.80703E-03  0.69947E-02  0.12395E-01  0.15356E-01  0.16295E-01
  0.15592E-01  0.13045E-01  0.79059E-02 -0.47059E-03  0.66189E-03  0.20468E-02
  0.21119E-02  0.91645E-03 -0.11412E-02 -0.33024E-02 -0.42982E-02 -0.29105E-02
  0.10499E-02  0.68528E-02  0.14039E-01  0.22684E-01  0.32181E-01  0.40861E-01
  0.47694E-01  0.53540E-01  0.59444E-01  0.64197E-01  0.64981E-01  0.60250E-01
  0.50434E-01  0.35747E-01  0.15538E-01 -0.86717E-02 -0.30826E-01 -0.43296E-01
 -0.42722E-01 -0.32178E-01 -0.17700E-01 -0.37483E-02  0.80170E-02  0.17228E-01
  0.23574E-01  0.26932E-01  0.27760E-01  0.26842E-01  0.24598E-01  0.20661E-01
  0.14173E-01  0.45111E-02  0.53554E-02  0.62093E-02  0.52418E-02  0.22408E-02
 -0.24557E-02 -0.73681E-02 -0.10282E-01 -0.97161E-02 -0.56807E-02  0.11947E-02
  0.10497E-01  0.21365E-01  0.31945E-01  0.40856E-01  0.48751E-01  0.56876E-01
  0.64197E-01  0.67764E-01  0.66235E-01  0.60822E-01  0.51522E-01  0.34884E-01
  0.87256E-02 -0.21253E-01 -0.42768E-01 -0.46539E-01 -0.33674E-01 -0.13142E-01
  0.64576E-02  0.21586E-01  0.32299E-01  0.39147E-01  0.42318E-01  0.42340E-01
  0.40259E-01  0.36995E-01  0.32766E-01  0.27126E-01  0.19464E-01  0.93021E-02
  0.96772E-02  0.95276E-02  0.67023E-02  0.58792E-03 -0.78550E-02 -0.15731E-01
 -0.19935E-01 -0.19141E-01 -0.13767E-01 -0.46911E-02  0.69390E-02  0.19126E-01
  0.29989E-01  0.39629E-01  0.49423E-01  0.58858E-01  0.64981E-01  0.66235E-01
  0.64613E-01  0.61215E-01  0.51201E-01  0.27845E-01 -0.66318E-02 -0.37544E-01
 -0.48469E-01 -0.35243E-01 -0.79257E-02  0.19716E-01  0.40266E-01  0.53357E-01
  0.60740E-01  0.63359E-01  0.61923E-01  0.57731E-01  0.52125E-01  0.45789E-01
  0.38856E-01  0.31354E-01  0.23268E-01  0.13879E-01  0.13147E-01  0.11412E-01
  0.53105E-02 -0.54908E-02 -0.18233E-01 -0.28251E-01 -0.32179E-01 -0.29558E-01
 -0.21657E-01 -0.10093E-01  0.30856E-02  0.15645E-01  0.26843E-01  0.37764E-01
  0.48590E-01  0.56800E-01  0.60250E-01  0.60822E-01  0.61215E-01  0.57685E-01
  0.40838E-01  0.78580E-02 -0.28063E-01 -0.45459E-01 -0.33224E-01  0.39096E-03
  0.37291E-01  0.64890E-01  0.81250E-01  0.89392E-01  0.91390E-01  0.88072E-01
  0.80834E-01  0.71536E-01  0.61357E-01  0.50818E-01  0.40604E-01  0.31645E-01
  0.24162E-01  0.16535E-01  0.16099E-01  0.11537E-01  0.34710E-03 -0.16011E-01
 -0.32152E-01 -0.42303E-01 -0.44053E-01 -0.38505E-01 -0.27990E-01 -0.14806E-01
 -0.12410E-02  0.11234E-01  0.22918E-01  0.34362E-01  0.43910E-01  0.49025E-01
  0.50434E-01  0.51522E-01  0.51201E-01  0.40838E-01  0.14035E-01 -0.20193E-01
 -0.39403E-01 -0.26761E-01  0.13312E-01  0.60291E-01  0.96129E-01  0.11624E+00
  0.12494E+00  0.12615E+00  0.12084E+00  0.10993E+00  0.95627E-01  0.79907E-01
  0.63743E-01  0.48153E-01  0.34793E-01  0.24989E-01  0.18467E-01  0.13043E-01
  0.18768E-01  0.96103E-02 -0.76646E-02 -0.28567E-01 -0.45637E-01 -0.53636E-01
 -0.52214E-01 -0.44087E-01 -0.32194E-01 -0.18866E-01 -0.58604E-02  0.62424E-02
  0.17732E-01  0.27777E-01  0.34047E-01  0.35847E-01  0.35747E-01  0.34884E-01
  0.27845E-01  0.78580E-02 -0.20193E-01 -0.36274E-01 -0.20635E-01  0.26710E-01
  0.84936E-01  0.13092E+00  0.15608E+00  0.16536E+00  0.16547E+00  0.15836E+00
  0.14395E+00  0.12396E+00  0.10119E+00  0.77557E-01  0.54478E-01  0.33977E-01
  0.18060E-01  0.74198E-02  0.15145E-02 -0.58099E-03  0.20394E-01  0.56659E-02
 -0.16549E-01 -0.39062E-01 -0.54228E-01 -0.58939E-01 -0.55028E-01 -0.45993E-01
 -0.34514E-01 -0.22328E-01 -0.10500E-01  0.61571E-03  0.10473E-01  0.17339E-01
  0.19696E-01  0.18511E-01  0.15538E-01  0.87256E-02 -0.66318E-02 -0.28063E-01
 -0.39403E-01 -0.20635E-01  0.32566E-01  0.10164E+00  0.15993E+00  0.19334E+00
  0.20528E+00  0.20513E+00  0.19711E+00  0.18056E+00  0.15569E+00  0.12533E+00
  0.92680E-01  0.60240E-01  0.30625E-01  0.63597E-02 -0.11511E-01 -0.23113E-01
 -0.27665E-01 -0.23188E-01  0.19876E-01  0.70668E-03 -0.23289E-01 -0.44069E-01
 -0.55753E-01 -0.57788E-01 -0.53227E-01 -0.45190E-01 -0.35466E-01 -0.25115E-01
 -0.14963E-01 -0.58072E-02  0.10476E-02  0.40286E-02  0.28416E-02 -0.13626E-02
 -0.86717E-02 -0.21253E-01 -0.37544E-01 -0.45459E-01 -0.26761E-01  0.26710E-01
  0.10164E+00  0.17141E+00  0.21653E+00  0.23571E+00  0.23856E+00  0.23200E+00
  0.21602E+00  0.18897E+00  0.15236E+00  0.11021E+00  0.66823E-01  0.26352E-01
 -0.75951E-02 -0.33469E-01 -0.51883E-01 -0.62655E-01 -0.62357E-01 -0.46888E-01
  0.17246E-01 -0.34488E-02 -0.25784E-01 -0.42817E-01 -0.51190E-01 -0.52121E-01
 -0.48596E-01 -0.42632E-01 -0.35124E-01 -0.26877E-01 -0.19001E-01 -0.12803E-01
 -0.96274E-02 -0.10205E-01 -0.14125E-01 -0.20856E-01 -0.30826E-01 -0.42768E-01
 -0.48469E-01 -0.33224E-01  0.13312E-01  0.84936E-01  0.15993E+00  0.21653E+00
  0.24722E+00  0.25803E+00  0.25679E+00  0.24497E+00  0.21980E+00  0.18038E+00
  0.13012E+00  0.75174E-01  0.22367E-01 -0.22457E-01 -0.56399E-01 -0.80191E-01
 -0.95461E-01 -0.10059E+00 -0.90411E-01 -0.61822E-01  0.13978E-01 -0.52899E-02
 -0.23901E-01 -0.36878E-01 -0.42967E-01 -0.44027E-01 -0.42179E-01 -0.38328E-01
 -0.32954E-01 -0.27105E-01 -0.22258E-01 -0.19696E-01 -0.20078E-01 -0.23242E-01
 -0.28571E-01 -0.35639E-01 -0.43296E-01 -0.46539E-01 -0.35243E-01  0.39097E-03
  0.60291E-01  0.13092E+00  0.19334E+00  0.23571E+00  0.25803E+00  0.26583E+00
  0.26148E+00  0.24220E+00  0.20459E+00  0.14972E+00  0.84374E-01  0.18613E-01
 -0.38095E-01 -0.80441E-01 -0.10842E+00 -0.12493E+00 -0.13135E+00 -0.12515E+00
 -0.10235E+00 -0.63408E-01  0.11774E-01 -0.44172E-02 -0.18773E-01 -0.28202E-01
 -0.32803E-01 -0.34316E-01 -0.33855E-01 -0.31685E-01 -0.28442E-01 -0.25551E-01
 -0.24400E-01 -0.25549E-01 -0.28691E-01 -0.33084E-01 -0.37949E-01 -0.42150E-01
 -0.42722E-01 -0.33674E-01 -0.79256E-02  0.37291E-01  0.96129E-01  0.15608E+00
  0.20528E+00  0.23856E+00  0.25679E+00  0.26148E+00  0.25045E+00  0.21884E+00
  0.16435E+00  0.92103E-01  0.14460E-01 -0.54506E-01 -0.10574E+00 -0.13784E+00
 -0.15426E+00 -0.15847E+00 -0.15123E+00 -0.13118E+00 -0.97879E-01 -0.54860E-01
  0.11434E-01 -0.12025E-02 -0.11473E-01 -0.17896E-01 -0.21335E-01 -0.23044E-01
 -0.23405E-01 -0.22663E-01 -0.21886E-01 -0.22504E-01 -0.25143E-01 -0.29301E-01
 -0.33963E-01 -0.38171E-01 -0.40850E-01 -0.40009E-01 -0.32178E-01 -0.13142E-01
  0.19716E-01  0.64890E-01  0.11624E+00  0.16536E+00  0.20513E+00  0.23200E+00
  0.24497E+00  0.24220E+00  0.21884E+00  0.16978E+00  0.96381E-01  0.10531E-01
 -0.69732E-01 -0.13024E+00 -0.16706E+00 -0.18401E+00 -0.18601E+00 -0.17558E+00
 -0.15390E+00 -0.12262E+00 -0.84335E-01 -0.42873E-01  0.12885E-01  0.38426E-02
 -0.27464E-02 -0.67230E-02 -0.91651E-02 -0.10735E-01 -0.11587E-01 -0.12390E-01
 -0.14443E-01 -0.18548E-01 -0.24205E-01 -0.30096E-01 -0.35028E-01 -0.38062E-01
 -0.37797E-01 -0.31897E-01 -0.17700E-01  0.64576E-02  0.40266E-01  0.81250E-01
  0.12494E+00  0.16547E+00  0.19711E+00  0.21602E+00  0.21980E+00  0.20459E+00
  0.16435E+00  0.96381E-01  0.88337E-02 -0.79353E-01 -0.14895E+00 -0.19155E+00
 -0.21037E+00 -0.21202E+00 -0.20017E+00 -0.17654E+00 -0.14427E+00 -0.10757E+00
 -0.69439E-01 -0.31771E-01  0.15691E-01  0.10017E-01  0.63647E-02  0.41467E-02
  0.25675E-02  0.13206E-02 -0.52149E-04 -0.26450E-02 -0.74361E-02 -0.14207E-01
 -0.21553E-01 -0.27912E-01 -0.32279E-01 -0.33768E-01 -0.30799E-01 -0.21263E-01
 -0.37483E-02  0.21586E-01  0.53357E-01  0.89392E-01  0.12615E+00  0.15836E+00
  0.18056E+00  0.18897E+00  0.18038E+00  0.14972E+00  0.92103E-01  0.10531E-01
 -0.79353E-01 -0.15605E+00 -0.20571E+00 -0.22833E+00 -0.23144E+00 -0.22055E+00
 -0.19756E+00 -0.16515E+00 -0.12846E+00 -0.91738E-01 -0.56191E-01 -0.22089E-01
  0.19152E-01  0.16158E-01  0.14474E-01  0.13471E-01  0.12694E-01  0.11687E-01
  0.95199E-02  0.51250E-02 -0.17299E-02 -0.99703E-02 -0.17822E-01 -0.23844E-01
 -0.27243E-01 -0.27168E-01 -0.22103E-01 -0.10486E-01  0.80170E-02  0.32299E-01
  0.60740E-01  0.91390E-01  0.12084E+00  0.14395E+00  0.15569E+00  0.15236E+00
  0.13012E+00  0.84374E-01  0.14460E-01 -0.69732E-01 -0.14895E+00 -0.20571E+00
 -0.23465E+00 -0.24129E+00 -0.23266E+00 -0.21200E+00 -0.18155E+00 -0.14597E+00
 -0.11030E+00 -0.76478E-01 -0.43993E-01 -0.13354E-01  0.22241E-01  0.21000E-01
  0.20593E-01  0.20590E-01  0.20449E-01  0.19303E-01  0.16115E-01  0.10302E-01
  0.22903E-02 -0.64620E-02 -0.14126E-01 -0.19376E-01 -0.21563E-01 -0.19974E-01
 -0.13367E-01 -0.80704E-03  0.17228E-01  0.39147E-01  0.63359E-01  0.88072E-01
  0.10993E+00  0.12396E+00  0.12533E+00  0.11021E+00  0.75174E-01  0.18613E-01
 -0.54506E-01 -0.13024E+00 -0.19155E+00 -0.22833E+00 -0.24129E+00 -0.23641E+00
 -0.21843E+00 -0.19050E+00 -0.15708E+00 -0.12330E+00 -0.91630E-01 -0.61473E-01
 -0.32481E-01 -0.63657E-02  0.23876E-01  0.23757E-01  0.24392E-01  0.25206E-01
  0.25284E-01  0.23637E-01  0.19584E-01  0.12992E-01  0.45430E-02 -0.41563E-02
 -0.11181E-01 -0.15303E-01 -0.16143E-01 -0.13238E-01 -0.56464E-02  0.69947E-02
  0.23574E-01  0.42318E-01  0.61923E-01  0.80834E-01  0.95627E-01  0.10119E+00
  0.92680E-01  0.66823E-01  0.22367E-01 -0.38095E-01 -0.10574E+00 -0.16706E+00
 -0.21037E+00 -0.23144E+00 -0.23266E+00 -0.21843E+00 -0.19303E+00 -0.16166E+00
 -0.12992E+00 -0.10079E+00 -0.73636E-01 -0.47313E-01 -0.22927E-01 -0.24577E-02
  0.23289E-01  0.24084E-01  0.25612E-01  0.26905E-01  0.26912E-01  0.24923E-01
  0.20548E-01  0.13731E-01  0.52807E-02 -0.28989E-02 -0.88118E-02 -0.11608E-01
 -0.11319E-01 -0.75908E-02  0.36570E-03  0.12395E-01  0.26932E-01  0.42340E-01
  0.57731E-01  0.71536E-01  0.79907E-01  0.77557E-01  0.60240E-01  0.26352E-01
 -0.22457E-01 -0.80441E-01 -0.13784E+00 -0.18401E+00 -0.21202E+00 -0.22055E+00
 -0.21200E+00 -0.19050E+00 -0.16166E+00 -0.13173E+00 -0.10468E+00 -0.80450E-01
 -0.57307E-01 -0.35414E-01 -0.16686E-01 -0.17839E-02  0.20120E-01  0.21709E-01
  0.23919E-01  0.25631E-01  0.25952E-01  0.24261E-01  0.20011E-01  0.13176E-01
  0.50484E-02 -0.21011E-02 -0.66254E-02 -0.83534E-02 -0.75089E-02 -0.35056E-02
  0.43428E-02  0.15356E-01  0.27760E-01  0.40259E-01  0.52125E-01  0.61357E-01
  0.63743E-01  0.54478E-01  0.30625E-01 -0.75951E-02 -0.56399E-01 -0.10842E+00
 -0.15426E+00 -0.18601E+00 -0.20017E+00 -0.19756E+00 -0.18155E+00 -0.15708E+00
 -0.12992E+00 -0.10468E+00 -0.82583E-01 -0.62318E-01 -0.43263E-01 -0.26723E-01
 -0.13732E-01 -0.32703E-02  0.14355E-01  0.16611E-01  0.19656E-01  0.22454E-01
  0.23913E-01  0.22885E-01  0.18628E-01  0.11726E-01  0.42516E-02 -0.15820E-02
 -0.49612E-02 -0.62165E-02 -0.52623E-02 -0.11823E-02  0.63869E-02  0.16295E-01
  0.26842E-01  0.36995E-01  0.45789E-01  0.50818E-01  0.48153E-01  0.33977E-01
  0.63597E-02 -0.33469E-01 -0.80191E-01 -0.12493E+00 -0.15847E+00 -0.17558E+00
 -0.17654E+00 -0.16515E+00 -0.14597E+00 -0.12330E+00 -0.10079E+00 -0.80450E-01
 -0.62318E-01 -0.45961E-01 -0.31968E-01 -0.21169E-01 -0.13007E-01 -0.59492E-02
  0.62883E-02  0.94091E-02  0.14096E-01  0.18927E-01  0.21815E-01  0.20985E-01
  0.16240E-01  0.93352E-02  0.27831E-02 -0.19111E-02 -0.47179E-02 -0.58670E-02
 -0.47479E-02 -0.48405E-03  0.67472E-02  0.15592E-01  0.24598E-01  0.32766E-01
  0.38856E-01  0.40604E-01  0.34793E-01  0.18060E-01 -0.11511E-01 -0.51883E-01
 -0.95461E-01 -0.13135E+00 -0.15123E+00 -0.15390E+00 -0.14427E+00 -0.12846E+00
 -0.11030E+00 -0.91630E-01 -0.73636E-01 -0.57307E-01 -0.43263E-01 -0.31968E-01
 -0.23700E-01 -0.17971E-01 -0.13571E-01 -0.96756E-02 -0.36168E-02  0.10960E-02
  0.83714E-02  0.15463E-01  0.19078E-01  0.17655E-01  0.12355E-01  0.58666E-02
  0.31684E-03 -0.36869E-02 -0.62945E-02 -0.72354E-02 -0.57235E-02 -0.13538E-02
  0.53036E-02  0.13045E-01  0.20661E-01  0.27126E-01  0.31354E-01  0.31645E-01
  0.24989E-01  0.74198E-02 -0.23113E-01 -0.62655E-01 -0.10059E+00 -0.12515E+00
 -0.13118E+00 -0.12262E+00 -0.10757E+00 -0.91738E-01 -0.76478E-01 -0.61473E-01
 -0.47313E-01 -0.35414E-01 -0.26723E-01 -0.21169E-01 -0.17971E-01 -0.16159E-01
 -0.15081E-01 -0.14484E-01 -0.14741E-01 -0.74915E-02  0.26499E-02  0.11204E-01
  0.14537E-01  0.12372E-01  0.71827E-02  0.16308E-02 -0.30709E-02 -0.67637E-02
 -0.92271E-02 -0.98623E-02 -0.81842E-02 -0.42363E-02  0.14275E-02  0.79059E-02
  0.14173E-01  0.19464E-01  0.23268E-01  0.24162E-01  0.18467E-01  0.15145E-02
 -0.27665E-01 -0.62357E-01 -0.90411E-01 -0.10235E+00 -0.97879E-01 -0.84335E-01
 -0.69439E-01 -0.56191E-01 -0.43993E-01 -0.32481E-01 -0.22927E-01 -0.16686E-01
 -0.13732E-01 -0.13007E-01 -0.13571E-01 -0.15081E-01 -0.17342E-01 -0.19570E-01
 -0.25592E-01 -0.15159E-01 -0.27797E-02  0.60252E-02  0.85931E-02  0.62601E-02
  0.19172E-02 -0.26168E-02 -0.68673E-02 -0.10544E-01 -0.13020E-01 -0.13764E-01
 -0.12641E-01 -0.97679E-02 -0.54781E-02 -0.47058E-03  0.45111E-02  0.93021E-02
  0.13879E-01  0.16535E-01  0.13043E-01 -0.58099E-03 -0.23188E-01 -0.46888E-01
 -0.61822E-01 -0.63408E-01 -0.54860E-01 -0.42873E-01 -0.31771E-01 -0.22089E-01
 -0.13354E-01 -0.63657E-02 -0.24577E-02 -0.17838E-02 -0.32703E-02 -0.59492E-02
 -0.96756E-02 -0.14484E-01 -0.19570E-01 -0.23083E-01  0.77859E-03  0.12512E-01
  0.27223E-01  0.40853E-01  0.48967E-01  0.49169E-01  0.42279E-01  0.31348E-01
  0.19558E-01  0.89176E-02  0.44927E-03 -0.51972E-02 -0.77562E-02 -0.76040E-02
 -0.55023E-02 -0.21045E-02  0.20468E-02  0.62092E-02  0.95276E-02  0.11412E-01
  0.11537E-01  0.96103E-02  0.56659E-02  0.70669E-03 -0.34487E-02 -0.52899E-02
 -0.44172E-02 -0.12025E-02  0.38426E-02  0.10017E-01  0.16158E-01  0.21000E-01
  0.23757E-01  0.24084E-01  0.21709E-01  0.16611E-01  0.94091E-02  0.10960E-02
 -0.74915E-02 -0.15159E-01  0.12512E-01  0.28212E-01  0.43934E-01  0.54789E-01
  0.57508E-01  0.52014E-01  0.40902E-01  0.27549E-01  0.14557E-01  0.35096E-02
 -0.45581E-02 -0.90524E-02 -0.10154E-01 -0.87885E-02 -0.60015E-02 -0.24934E-02
  0.11829E-02  0.41861E-02  0.53269E-02  0.34134E-02 -0.21663E-02 -0.10715E-01
 -0.19881E-01 -0.26538E-01 -0.28614E-01 -0.26142E-01 -0.20448E-01 -0.12675E-01
 -0.35062E-02  0.60848E-02  0.14678E-01  0.21186E-01  0.25220E-01  0.26554E-01
  0.24940E-01  0.20806E-01  0.15456E-01  0.99497E-02  0.43175E-02 -0.12298E-02
  0.27223E-01  0.43934E-01  0.56833E-01  0.61960E-01  0.58375E-01  0.48062E-01
  0.34267E-01  0.19871E-01  0.68467E-02 -0.34512E-02 -0.10090E-01 -0.12846E-01
 -0.12440E-01 -0.10145E-01 -0.70816E-02 -0.39454E-02 -0.14134E-02 -0.68741E-03
 -0.35008E-02 -0.11268E-01 -0.23664E-01 -0.37723E-01 -0.48794E-01 -0.53212E-01
 -0.50462E-01 -0.42707E-01 -0.32381E-01 -0.20688E-01 -0.82379E-02  0.38812E-02
  0.14331E-01  0.22318E-01  0.27518E-01  0.29608E-01  0.28698E-01  0.26043E-01
  0.23239E-01  0.20466E-01  0.16450E-01  0.10841E-01  0.40853E-01  0.54789E-01
  0.61960E-01  0.60553E-01  0.51762E-01  0.38481E-01  0.23677E-01  0.95760E-02
 -0.22820E-02 -0.10793E-01 -0.15364E-01 -0.16221E-01 -0.14436E-01 -0.11436E-01
 -0.84087E-02 -0.61730E-02 -0.56635E-02 -0.84270E-02 -0.16285E-01 -0.29856E-01
 -0.46909E-01 -0.62417E-01 -0.71128E-01 -0.70850E-01 -0.63358E-01 -0.52102E-01
 -0.39334E-01 -0.25582E-01 -0.11151E-01  0.28564E-02  0.15034E-01  0.24370E-01
  0.30230E-01  0.32471E-01  0.32069E-01  0.30900E-01  0.29982E-01  0.28174E-01
  0.23586E-01  0.16405E-01  0.48967E-01  0.57508E-01  0.58375E-01  0.51762E-01
  0.39870E-01  0.25524E-01  0.11163E-01 -0.14705E-02 -0.11206E-01 -0.17297E-01
 -0.19509E-01 -0.18377E-01 -0.15227E-01 -0.11706E-01 -0.91643E-02 -0.85206E-02
 -0.10768E-01 -0.17340E-01 -0.29389E-01 -0.46095E-01 -0.63631E-01 -0.76506E-01
 -0.80833E-01 -0.76708E-01 -0.67312E-01 -0.55751E-01 -0.42967E-01 -0.28533E-01
 -0.12652E-01  0.31236E-02  0.16740E-01  0.26613E-01  0.32104E-01  0.33849E-01
  0.33662E-01  0.33262E-01  0.32573E-01  0.29784E-01  0.23614E-01  0.15304E-01
  0.49169E-01  0.52014E-01  0.48062E-01  0.38481E-01  0.25524E-01  0.11649E-01
 -0.11127E-02 -0.11404E-01 -0.18415E-01 -0.21684E-01 -0.21239E-01 -0.17977E-01
 -0.13643E-01 -0.10133E-01 -0.87367E-02 -0.10141E-01 -0.15038E-01 -0.24321E-01
 -0.38126E-01 -0.54468E-01 -0.69170E-01 -0.77909E-01 -0.78952E-01 -0.73942E-01
 -0.65852E-01 -0.56197E-01 -0.44377E-01 -0.29512E-01 -0.12404E-01  0.44089E-02
  0.18124E-01  0.27087E-01  0.31341E-01  0.32378E-01  0.32137E-01  0.31541E-01
  0.29803E-01  0.25506E-01  0.18511E-01  0.10548E-01  0.42279E-01  0.40902E-01
  0.34267E-01  0.23677E-01  0.11163E-01 -0.11127E-02 -0.11458E-01 -0.18845E-01
 -0.22677E-01 -0.22704E-01 -0.19410E-01 -0.14327E-01 -0.95652E-02 -0.68253E-02
 -0.68909E-02 -0.10024E-01 -0.16568E-01 -0.26790E-01 -0.39962E-01 -0.53689E-01
 -0.64590E-01 -0.70167E-01 -0.70324E-01 -0.66914E-01 -0.61585E-01 -0.54118E-01
 -0.43097E-01 -0.28105E-01 -0.11025E-01  0.48473E-02  0.16775E-01  0.23838E-01
  0.26863E-01  0.27511E-01  0.27133E-01  0.25956E-01  0.23224E-01  0.18323E-01
  0.11775E-01  0.49977E-02  0.31348E-01  0.27549E-01  0.19871E-01  0.95760E-02
 -0.14705E-02 -0.11404E-01 -0.18845E-01 -0.22916E-01 -0.23156E-01 -0.19811E-01
 -0.14192E-01 -0.83439E-02 -0.40861E-02 -0.23577E-02 -0.34222E-02 -0.74256E-02
 -0.14490E-01 -0.24251E-01 -0.35419E-01 -0.45913E-01 -0.53679E-01 -0.57761E-01
 -0.58703E-01 -0.57649E-01 -0.54814E-01 -0.49022E-01 -0.39047E-01 -0.25423E-01
 -0.10689E-01  0.21566E-02  0.11346E-01  0.16762E-01  0.19307E-01  0.20091E-01
  0.19837E-01  0.18561E-01  0.15790E-01  0.11314E-01  0.56835E-02 -0.16569E-03
  0.19558E-01  0.14557E-01  0.68467E-02 -0.22820E-02 -0.11206E-01 -0.18415E-01
 -0.22677E-01 -0.23156E-01 -0.19830E-01 -0.13879E-01 -0.72858E-02 -0.17927E-02
  0.17414E-02  0.30105E-02  0.16815E-02 -0.25291E-02 -0.93242E-02 -0.17673E-01
 -0.26223E-01 -0.33765E-01 -0.39515E-01 -0.43309E-01 -0.45536E-01 -0.46476E-01
 -0.45545E-01 -0.41533E-01 -0.33903E-01 -0.23727E-01 -0.13128E-01 -0.39067E-02
  0.31344E-02  0.79213E-02  0.10726E-01  0.12067E-01  0.12428E-01  0.11789E-01
  0.96677E-02  0.58526E-02  0.85084E-03 -0.46235E-02  0.89176E-02  0.35096E-02
 -0.34512E-02 -0.10793E-01 -0.17297E-01 -0.21684E-01 -0.22704E-01 -0.19811E-01
 -0.13879E-01 -0.68828E-02 -0.58831E-03  0.43081E-02  0.76800E-02  0.90598E-02
  0.77491E-02  0.37529E-02 -0.19109E-02 -0.80010E-02 -0.13846E-01 -0.19256E-01
 -0.24073E-01 -0.28155E-01 -0.31519E-01 -0.34028E-01 -0.35015E-01 -0.33649E-01
 -0.29782E-01 -0.24137E-01 -0.17668E-01 -0.11064E-01 -0.49527E-02 -0.51480E-04
  0.32879E-02  0.53940E-02  0.66848E-02  0.69017E-02  0.53796E-02  0.20062E-02
 -0.25982E-02 -0.79367E-02  0.44927E-03 -0.45581E-02 -0.10090E-01 -0.15364E-01
 -0.19509E-01 -0.21239E-01 -0.19410E-01 -0.14192E-01 -0.72858E-02 -0.58831E-03
  0.51375E-02  0.99685E-02  0.13573E-01  0.15001E-01  0.13823E-01  0.10866E-01
  0.73881E-02  0.38629E-02 -0.81875E-05 -0.43698E-02 -0.88691E-02 -0.13206E-01
 -0.17450E-01 -0.21570E-01 -0.25022E-01 -0.27082E-01 -0.27345E-01 -0.25671E-01
 -0.21998E-01 -0.16667E-01 -0.10776E-01 -0.56394E-02 -0.17852E-02  0.11122E-02
  0.32205E-02  0.39778E-02  0.27985E-02 -0.13509E-03 -0.42820E-02 -0.96363E-02
 -0.51972E-02 -0.90524E-02 -0.12846E-01 -0.16221E-01 -0.18377E-01 -0.17977E-01
 -0.14327E-01 -0.83439E-02 -0.17927E-02  0.43081E-02  0.99685E-02  0.15040E-01
  0.18607E-01  0.19980E-01  0.19700E-01  0.18911E-01  0.17951E-01  0.16201E-01
  0.13247E-01  0.95317E-02  0.56029E-02  0.12622E-02 -0.40716E-02 -0.10379E-01
 -0.16811E-01 -0.22277E-01 -0.25845E-01 -0.26713E-01 -0.24460E-01 -0.19657E-01
 -0.13844E-01 -0.84778E-02 -0.40429E-02 -0.41649E-03  0.21961E-02  0.32046E-02
  0.23802E-02  0.16047E-04 -0.38143E-02 -0.95921E-02 -0.77562E-02 -0.10154E-01
 -0.12440E-01 -0.14436E-01 -0.15227E-01 -0.13643E-01 -0.95652E-02 -0.40861E-02
  0.17414E-02  0.76799E-02  0.13573E-01  0.18607E-01  0.22011E-01  0.24116E-01
  0.25905E-01  0.27568E-01  0.28235E-01  0.27291E-01  0.25255E-01  0.22883E-01
  0.19851E-01  0.14966E-01  0.75972E-02 -0.15205E-02 -0.10858E-01 -0.18933E-01
 -0.24495E-01 -0.26529E-01 -0.24730E-01 -0.19990E-01 -0.13972E-01 -0.80528E-02
 -0.28311E-02  0.14244E-02  0.43028E-02  0.54715E-02  0.49847E-02  0.29125E-02
 -0.11789E-02 -0.78938E-02 -0.76040E-02 -0.87885E-02 -0.10145E-01 -0.11436E-01
 -0.11706E-01 -0.10133E-01 -0.68253E-02 -0.23577E-02  0.30105E-02  0.90598E-02
  0.15001E-01  0.19980E-01  0.24116E-01  0.28223E-01  0.32386E-01  0.35577E-01
  0.37029E-01  0.37296E-01  0.37275E-01  0.36541E-01  0.33385E-01  0.26526E-01
  0.16359E-01  0.45366E-02 -0.70656E-02 -0.16759E-01 -0.23019E-01 -0.24834E-01
 -0.22315E-01 -0.16750E-01 -0.98636E-02 -0.30217E-02  0.29488E-02  0.75094E-02
  0.10319E-01  0.11350E-01  0.10734E-01  0.82700E-02  0.32888E-02 -0.47358E-02
 -0.55023E-02 -0.60015E-02 -0.70816E-02 -0.84087E-02 -0.91643E-02 -0.87367E-02
 -0.68909E-02 -0.34222E-02  0.16815E-02  0.77491E-02  0.13823E-01  0.19700E-01
  0.25905E-01  0.32386E-01  0.38038E-01  0.42032E-01  0.44944E-01  0.47715E-01
  0.49797E-01  0.49156E-01  0.44154E-01  0.34818E-01  0.22359E-01  0.83679E-02
 -0.51263E-02 -0.15568E-01 -0.20796E-01 -0.20276E-01 -0.15260E-01 -0.77954E-02
  0.30047E-03  0.77621E-02  0.13757E-01  0.17810E-01  0.19838E-01  0.20064E-01
  0.18633E-01  0.15187E-01  0.89347E-02 -0.70803E-03 -0.21045E-02 -0.24934E-02
 -0.39454E-02 -0.61730E-02 -0.85206E-02 -0.10141E-01 -0.10024E-01 -0.74256E-02
 -0.25291E-02  0.37528E-02  0.10866E-01  0.18911E-01  0.27568E-01  0.35577E-01
  0.42032E-01  0.47583E-01  0.53253E-01  0.58336E-01  0.60558E-01  0.58347E-01