       #
       # Generated by the Wannier90 code http://www.wannier.org
       # On 28Aug2024 at 16:10:53 
       #
CRYSTAL
PRIMVEC
   2.7382345   2.7382345   0.0000000
   0.0000000   2.7382345   2.7382345
   2.7382345   0.0000000   2.7382345
CONVVEC
   2.7382345   2.7382345   0.0000000
   0.0000000   2.7382345   2.7382345
   2.7382345   0.0000000   2.7382345
PRIMCOORD
     2  1
Si      0.0000000   0.0000000   0.0000000
Si      1.3691172   1.3691172   1.3691172


BEGIN_BLOCK_DATAGRID_3D
3D_field
BEGIN_DATAGRID_3D_UNKNOWN
    40    40    40
   -5.750292   -5.750292   -5.750292
   5.3395573   5.3395573   0.0000000
   0.0000000   5.3395573   5.3395573
   5.3395573   0.0000000   5.3395573
 -0.48100E-02  0.64884E-02  0.19870E-01  0.30814E-01  0.35332E-01  0.32651E-01
  0.24880E-01  0.14604E-01  0.34741E-02 -0.72213E-02 -0.15978E-01 -0.21879E-01
 -0.25377E-01 -0.27498E-01 -0.28536E-01 -0.28300E-01 -0.27362E-01 -0.26875E-01
 -0.26786E-01 -0.25272E-01 -0.20943E-01 -0.15182E-01 -0.11297E-01 -0.11183E-01
 -0.13493E-01 -0.15264E-01 -0.14713E-01 -0.12080E-01 -0.84346E-02 -0.45693E-02
 -0.10922E-02  0.11314E-02  0.12060E-02 -0.11694E-02 -0.55588E-02 -0.11330E-01
 -0.18173E-01 -0.25756E-01 -0.32582E-01 -0.35298E-01  0.64884E-02  0.18525E-01
  0.29973E-01  0.36784E-01  0.36938E-01  0.31273E-01  0.21949E-01  0.10823E-01
 -0.56687E-03 -0.10472E-01 -0.17492E-01 -0.21607E-01 -0.23861E-01 -0.24959E-01
 -0.24859E-01 -0.23865E-01 -0.23076E-01 -0.23001E-01 -0.22380E-01 -0.19602E-01
 -0.15309E-01 -0.12528E-01 -0.13630E-01 -0.17680E-01 -0.21312E-01 -0.21815E-01
 -0.18849E-01 -0.13633E-01 -0.74942E-02 -0.14983E-02  0.32699E-02  0.58310E-02
  0.57677E-02  0.32858E-02 -0.11770E-02 -0.72170E-02 -0.14261E-01 -0.21040E-01
 -0.25175E-01 -0.23562E-01  0.19870E-01  0.29973E-01  0.36969E-01  0.38672E-01
  0.34948E-01  0.27123E-01  0.16766E-01  0.53957E-02 -0.51549E-02 -0.13107E-01
 -0.17833E-01 -0.20095E-01 -0.20901E-01 -0.20597E-01 -0.19401E-01 -0.18184E-01
 -0.17750E-01 -0.17552E-01 -0.16217E-01 -0.13819E-01 -0.12766E-01 -0.15519E-01
 -0.21604E-01 -0.27547E-01 -0.29791E-01 -0.27201E-01 -0.20908E-01 -0.12693E-01
 -0.41061E-02  0.34608E-02  0.88099E-02  0.11334E-01  0.11082E-01  0.83677E-02
  0.35955E-02 -0.24524E-02 -0.83847E-02 -0.12366E-01 -0.12476E-01 -0.72667E-02
  0.30814E-01  0.36784E-01  0.38672E-01  0.36091E-01  0.29698E-01  0.20557E-01
  0.99106E-02 -0.58947E-03 -0.90743E-02 -0.14395E-01 -0.16741E-01 -0.17068E-01
 -0.16126E-01 -0.14396E-01 -0.12670E-01 -0.11837E-01 -0.11882E-01 -0.11844E-01
 -0.11439E-01 -0.12289E-01 -0.16599E-01 -0.24353E-01 -0.32414E-01 -0.36749E-01
 -0.35347E-01 -0.28920E-01 -0.19474E-01 -0.89195E-02  0.11676E-02  0.94071E-02
  0.14840E-01  0.17146E-01  0.16443E-01  0.13106E-01  0.80168E-02  0.27549E-02
 -0.85956E-03 -0.15123E-02  0.13033E-02  0.73517E-02  0.35332E-01  0.36938E-01
  0.34948E-01  0.29698E-01  0.21844E-01  0.12338E-01  0.25540E-02 -0.58371E-02
 -0.11497E-01 -0.14035E-01 -0.13964E-01 -0.12126E-01 -0.94016E-02 -0.68319E-02
 -0.54504E-02 -0.55911E-02 -0.66621E-02 -0.81635E-02 -0.10887E-01 -0.16433E-01
 -0.25099E-01 -0.34494E-01 -0.40742E-01 -0.41166E-01 -0.35754E-01 -0.26363E-01
 -0.15087E-01 -0.35135E-02  0.70690E-02  0.15464E-01  0.20744E-01  0.22472E-01
  0.20798E-01  0.16602E-01  0.11551E-01  0.76215E-02  0.61979E-02  0.75230E-02
  0.10960E-01  0.15542E-01  0.32651E-01  0.31273E-01  0.27123E-01  0.20557E-01
  0.12338E-01  0.36835E-02 -0.39765E-02 -0.94233E-02 -0.11980E-01 -0.11615E-01
 -0.88899E-02 -0.48835E-02 -0.10422E-02  0.12738E-02  0.14300E-02 -0.27437E-03
 -0.32651E-02 -0.76352E-02 -0.14170E-01 -0.23115E-01 -0.32916E-01 -0.40480E-01
 -0.42991E-01 -0.39627E-01 -0.31644E-01 -0.21070E-01 -0.94733E-02  0.21466E-02
  0.12759E-01  0.21001E-01  0.25594E-01  0.26038E-01  0.22991E-01  0.18106E-01
  0.13419E-01  0.10557E-01  0.10142E-01  0.11742E-01  0.14370E-01  0.17034E-01
  0.24880E-01  0.21949E-01  0.16766E-01  0.99106E-02  0.25540E-02 -0.39765E-02
 -0.86459E-02 -0.10782E-01 -0.10010E-01 -0.64642E-02 -0.11344E-02  0.42282E-02
  0.78623E-02  0.88400E-02  0.72487E-02  0.36142E-02 -0.17877E-02 -0.90306E-02
 -0.17969E-01 -0.27550E-01 -0.35698E-01 -0.40088E-01 -0.39374E-01 -0.33901E-01
 -0.25229E-01 -0.14914E-01 -0.37971E-02  0.75097E-02  0.17746E-01  0.25020E-01
  0.27905E-01  0.26462E-01  0.22173E-01  0.17049E-01  0.12790E-01  0.10407E-01
  0.10109E-01  0.11332E-01  0.13081E-01  0.14428E-01  0.14604E-01  0.10823E-01
  0.53957E-02 -0.58946E-03 -0.58371E-02 -0.94233E-02 -0.10782E-01 -0.94107E-02
 -0.50806E-02  0.14774E-02  0.83931E-02  0.13542E-01  0.15720E-01  0.14915E-01
  0.11613E-01  0.61416E-02 -0.12652E-02 -0.10048E-01 -0.19181E-01 -0.27315E-01
 -0.32951E-01 -0.34790E-01 -0.32368E-01 -0.26403E-01 -0.18218E-01 -0.87356E-02
  0.16694E-02  0.12207E-01  0.21016E-01  0.25995E-01  0.26358E-01  0.23146E-01
  0.18278E-01  0.13411E-01  0.96387E-02  0.76218E-02  0.74519E-02  0.84693E-02
  0.96218E-02  0.10110E-01  0.34741E-02 -0.56686E-03 -0.51549E-02 -0.90743E-02
 -0.11497E-01 -0.11980E-01 -0.10010E-01 -0.50806E-02  0.24370E-02  0.10748E-01
  0.17443E-01  0.20997E-01  0.21337E-01  0.19032E-01  0.14387E-01  0.75628E-02
 -0.77402E-03 -0.94157E-02 -0.17203E-01 -0.23295E-01 -0.26896E-01 -0.27262E-01
 -0.24264E-01 -0.18642E-01 -0.11341E-01 -0.28299E-02  0.64570E-02  0.15160E-01
  0.21141E-01  0.22964E-01  0.20997E-01  0.16884E-01  0.12225E-01  0.80333E-02
  0.50365E-02  0.37390E-02  0.39814E-02  0.48816E-02  0.55137E-02  0.54650E-02
 -0.72212E-02 -0.10472E-01 -0.13107E-01 -0.14395E-01 -0.14035E-01 -0.11615E-01
 -0.64642E-02  0.14774E-02  0.10748E-01  0.18840E-01  0.23847E-01  0.25481E-01
  0.24412E-01  0.21051E-01  0.15415E-01  0.79705E-02 -0.44471E-04 -0.73541E-02
 -0.13320E-01 -0.17658E-01 -0.19864E-01 -0.19411E-01 -0.16378E-01 -0.11426E-01
 -0.51426E-02  0.20909E-02  0.93996E-02  0.15090E-01  0.17587E-01  0.16671E-01
  0.13492E-01  0.94658E-02  0.55163E-02  0.22778E-02  0.35920E-03 -0.29128E-04
  0.56837E-03  0.12928E-02  0.16971E-02  0.17546E-02 -0.15978E-01 -0.17492E-01
 -0.17833E-01 -0.16741E-01 -0.13964E-01 -0.88899E-02 -0.11344E-02  0.83931E-02
  0.17443E-01  0.23847E-01  0.26894E-01  0.27131E-01  0.25111E-01  0.20892E-01
  0.14730E-01  0.76697E-02  0.10149E-02 -0.45448E-02 -0.89222E-02 -0.11941E-01
 -0.13126E-01 -0.12215E-01 -0.94889E-02 -0.54279E-02 -0.40788E-03  0.49628E-02
  0.94774E-02  0.11816E-01  0.11517E-01  0.92364E-02  0.60153E-02  0.25915E-02
 -0.51663E-03 -0.27043E-02 -0.35344E-02 -0.32113E-02 -0.24090E-02 -0.15776E-02
 -0.71491E-03  0.14112E-03 -0.21879E-01 -0.21607E-01 -0.20095E-01 -0.17068E-01
 -0.12126E-01 -0.48835E-02  0.42282E-02  0.13542E-01  0.20997E-01  0.25481E-01
  0.27131E-01  0.26437E-01  0.23586E-01  0.18848E-01  0.13107E-01  0.74929E-02
  0.26119E-02 -0.15034E-02 -0.47608E-02 -0.67453E-02 -0.71597E-02 -0.61669E-02
 -0.41167E-02 -0.12362E-02  0.21215E-02  0.51199E-02  0.67473E-02  0.65702E-02
  0.49735E-02  0.26178E-02 -0.83119E-04 -0.28272E-02 -0.50755E-02 -0.62321E-02
 -0.61820E-02 -0.53634E-02 -0.42090E-02 -0.27544E-02 -0.94234E-03  0.94656E-03
 -0.25377E-01 -0.23861E-01 -0.20901E-01 -0.16126E-01 -0.94016E-02 -0.10422E-02
  0.78623E-02  0.15720E-01  0.21337E-01  0.24412E-01  0.25111E-01  0.23586E-01
  0.20215E-01  0.15936E-01  0.11769E-01  0.80425E-02  0.45210E-02  0.12647E-02
 -0.11112E-02 -0.21627E-02 -0.21561E-02 -0.16164E-02 -0.69119E-03  0.65546E-03
  0.20361E-02  0.27078E-02  0.22880E-02  0.10619E-02 -0.51838E-03 -0.23324E-02
 -0.43910E-02 -0.63591E-02 -0.76109E-02 -0.77782E-02 -0.70330E-02 -0.57446E-02
 -0.40259E-02 -0.17726E-02  0.95763E-03  0.38585E-02 -0.27498E-01 -0.24959E-01
 -0.20597E-01 -0.14396E-01 -0.68319E-02  0.12738E-02  0.88400E-02  0.14915E-01
  0.19032E-01  0.21051E-01  0.20892E-01  0.18848E-01  0.15936E-01  0.13298E-01
  0.11138E-01  0.87771E-02  0.59361E-02  0.34023E-02  0.20565E-02  0.17069E-02
  0.14362E-02  0.82759E-03  0.22680E-03 -0.12267E-03 -0.55276E-03 -0.14024E-02
 -0.24809E-02 -0.34234E-02 -0.42659E-02 -0.53040E-02 -0.65076E-02 -0.74022E-02
 -0.75381E-02 -0.68691E-02 -0.56235E-02 -0.39451E-02 -0.17460E-02  0.11351E-02
  0.46998E-02  0.87477E-02 -0.28536E-01 -0.24859E-01 -0.19401E-01 -0.12670E-01
 -0.54504E-02  0.14300E-02  0.72487E-02  0.11613E-01  0.14387E-01  0.15415E-01
  0.14730E-01  0.13107E-01  0.11769E-01  0.11138E-01  0.10366E-01  0.86266E-02
  0.64452E-02  0.50563E-02  0.46606E-02  0.41505E-02  0.26258E-02  0.41406E-03
 -0.16709E-02 -0.33825E-02 -0.48670E-02 -0.59543E-02 -0.62828E-02 -0.59669E-02
 -0.55894E-02 -0.55045E-02 -0.55132E-02 -0.52488E-02 -0.45741E-02 -0.35389E-02
 -0.21697E-02 -0.36232E-03  0.21488E-02  0.56760E-02  0.10256E-01  0.15457E-01
 -0.28300E-01 -0.23865E-01 -0.18184E-01 -0.11837E-01 -0.55911E-02 -0.27439E-03
  0.36141E-02  0.61416E-02  0.75628E-02  0.79705E-02  0.76697E-02  0.74929E-02
  0.80425E-02  0.87771E-02  0.86266E-02  0.75416E-02  0.66059E-02  0.63666E-02
  0.58846E-02  0.39753E-02  0.74918E-03 -0.27253E-02 -0.57655E-02 -0.82569E-02
 -0.98052E-02 -0.96987E-02 -0.78972E-02 -0.53745E-02 -0.31961E-02 -0.16808E-02
 -0.62507E-03  0.14346E-03  0.73684E-03  0.13969E-02  0.24403E-02  0.42086E-02
  0.71511E-02  0.11584E-01  0.17187E-01  0.23059E-01 -0.27362E-01 -0.23076E-01
 -0.17750E-01 -0.11882E-01 -0.66621E-02 -0.32651E-02 -0.17877E-02 -0.12652E-02
 -0.77403E-03 -0.44477E-04  0.10149E-02  0.26119E-02  0.45210E-02  0.59361E-02
  0.64452E-02  0.66059E-02  0.69003E-02  0.66149E-02  0.46135E-02  0.93186E-03
 -0.33002E-02 -0.73416E-02 -0.11144E-01 -0.14049E-01 -0.14396E-01 -0.11203E-01
 -0.55950E-02  0.97903E-04  0.43044E-02  0.67811E-02  0.78225E-02  0.77727E-02
  0.71977E-02  0.68440E-02  0.73222E-02  0.91224E-02  0.12689E-01  0.17982E-01
  0.24184E-01  0.30367E-01 -0.26875E-01 -0.23001E-01 -0.17552E-01 -0.11844E-01
 -0.81636E-02 -0.76353E-02 -0.90306E-02 -0.10048E-01 -0.94157E-02 -0.73541E-02
 -0.45448E-02 -0.15034E-02  0.12647E-02  0.34023E-02  0.50563E-02  0.63666E-02
  0.66149E-02  0.47642E-02  0.95950E-03 -0.34982E-02 -0.79495E-02 -0.12907E-01
 -0.17965E-01 -0.20305E-01 -0.16852E-01 -0.77938E-02  0.31619E-02  0.12035E-01
  0.17197E-01  0.19012E-01  0.18358E-01  0.16204E-01  0.13750E-01  0.12106E-01
  0.11968E-01  0.13784E-01  0.17747E-01  0.23411E-01  0.29951E-01  0.36967E-01
 -0.26786E-01 -0.22380E-01 -0.16217E-01 -0.11439E-01 -0.10887E-01 -0.14170E-01
 -0.17969E-01 -0.19181E-01 -0.17203E-01 -0.13320E-01 -0.89222E-02 -0.47608E-02
 -0.11112E-02  0.20565E-02  0.46606E-02  0.58846E-02  0.46135E-02  0.95950E-03
 -0.35266E-02 -0.79840E-02 -0.13517E-01 -0.20688E-01 -0.26198E-01 -0.24331E-01
 -0.12690E-01  0.46558E-02  0.20552E-01  0.30407E-01  0.33953E-01  0.32982E-01
  0.29256E-01  0.24345E-01  0.19810E-01  0.16790E-01  0.15850E-01  0.17280E-01
  0.21047E-01  0.26679E-01  0.33818E-01  0.42257E-01 -0.25272E-01 -0.19602E-01
 -0.13819E-01 -0.12289E-01 -0.16433E-01 -0.23115E-01 -0.27550E-01 -0.27315E-01
 -0.23295E-01 -0.17658E-01 -0.11941E-01 -0.67453E-02 -0.21627E-02  0.17069E-02
  0.41505E-02  0.39753E-02  0.93186E-03 -0.34982E-02 -0.79840E-02 -0.13589E-01
 -0.21950E-01 -0.30455E-01 -0.31513E-01 -0.19100E-01  0.43049E-02  0.28945E-01
  0.45854E-01  0.52561E-01  0.51659E-01  0.46442E-01  0.39097E-01  0.31336E-01
  0.24684E-01  0.20070E-01  0.17894E-01  0.18378E-01  0.21474E-01  0.26911E-01
  0.34540E-01  0.43401E-01 -0.20943E-01 -0.15309E-01 -0.12766E-01 -0.16599E-01
 -0.25099E-01 -0.32916E-01 -0.35698E-01 -0.32951E-01 -0.26896E-01 -0.19864E-01
 -0.13126E-01 -0.71597E-02 -0.21561E-02  0.14362E-02  0.26258E-02  0.74918E-03
 -0.33002E-02 -0.79495E-02 -0.13517E-01 -0.21950E-01 -0.31985E-01 -0.35885E-01
 -0.24506E-01  0.30355E-02  0.36448E-01  0.62293E-01  0.74045E-01  0.73900E-01
  0.67155E-01  0.57411E-01  0.46480E-01  0.35881E-01  0.26936E-01  0.20355E-01
  0.16533E-01  0.15762E-01  0.17934E-01  0.22654E-01  0.29450E-01  0.36480E-01
 -0.15182E-01 -0.12528E-01 -0.15519E-01 -0.24353E-01 -0.34494E-01 -0.40480E-01
 -0.40088E-01 -0.34790E-01 -0.27262E-01 -0.19411E-01 -0.12215E-01 -0.61669E-02
 -0.16164E-02  0.82759E-03  0.41406E-03 -0.27253E-02 -0.73416E-02 -0.12907E-01
 -0.20688E-01 -0.30455E-01 -0.35885E-01 -0.26605E-01  0.20541E-02  0.41931E-01
  0.76989E-01  0.95743E-01  0.97906E-01  0.90054E-01  0.77969E-01  0.64129E-01
  0.49746E-01  0.36217E-01  0.24690E-01  0.15853E-01  0.10317E-01  0.83336E-02
  0.92974E-02  0.12342E-01  0.16941E-01  0.21574E-01 -0.11297E-01 -0.13630E-01
 -0.21604E-01 -0.32414E-01 -0.40742E-01 -0.42991E-01 -0.39374E-01 -0.32368E-01
 -0.24264E-01 -0.16378E-01 -0.94889E-02 -0.41167E-02 -0.69119E-03  0.22680E-03
 -0.16709E-02 -0.57655E-02 -0.11144E-01 -0.17965E-01 -0.26198E-01 -0.31513E-01
 -0.24506E-01  0.20541E-02  0.43988E-01  0.85924E-01  0.11259E+00  0.11946E+00
  0.11228E+00  0.98722E-01  0.82668E-01  0.65239E-01  0.47514E-01  0.30918E-01
  0.16579E-01  0.55424E-02 -0.12642E-02 -0.40712E-02 -0.43573E-02 -0.30646E-02
  0.34015E-03  0.57326E-02 -0.11183E-01 -0.17680E-01 -0.27547E-01 -0.36749E-01
 -0.41166E-01 -0.39627E-01 -0.33901E-01 -0.26403E-01 -0.18642E-01 -0.11426E-01
 -0.54279E-02 -0.12362E-02  0.65546E-03 -0.12266E-03 -0.33825E-02 -0.82569E-02
 -0.14049E-01 -0.20305E-01 -0.24331E-01 -0.19100E-01  0.30355E-02  0.41931E-01
  0.85924E-01  0.11902E+00  0.13254E+00  0.12907E+00  0.11638E+00  0.99774E-01
  0.80834E-01  0.60218E-01  0.39253E-01  0.19442E-01  0.23641E-02 -0.10125E-01
 -0.17063E-01 -0.19697E-01 -0.20148E-01 -0.18455E-01 -0.12426E-01 -0.14821E-02
 -0.13493E-01 -0.21312E-01 -0.29791E-01 -0.35347E-01 -0.35754E-01 -0.31644E-01
 -0.25229E-01 -0.18218E-01 -0.11341E-01 -0.51426E-02 -0.40788E-03  0.21215E-02
  0.20361E-02 -0.55276E-03 -0.48670E-02 -0.98052E-02 -0.14396E-01 -0.16852E-01
 -0.12690E-01  0.43049E-02  0.36448E-01  0.76989E-01  0.11259E+00  0.13254E+00
  0.13540E+00  0.12676E+00  0.11223E+00  0.94063E-01  0.72744E-01  0.49169E-01
  0.24879E-01  0.18948E-02 -0.16973E-01 -0.29081E-01 -0.34217E-01 -0.34862E-01
 -0.32982E-01 -0.27200E-01 -0.14693E-01  0.38153E-02 -0.15264E-01 -0.21815E-01
 -0.27201E-01 -0.28920E-01 -0.26363E-01 -0.21070E-01 -0.14914E-01 -0.87356E-02
 -0.28299E-02  0.20909E-02  0.49628E-02  0.51199E-02  0.27078E-02 -0.14024E-02
 -0.59543E-02 -0.96987E-02 -0.11203E-01 -0.77938E-02  0.46558E-02  0.28945E-01
  0.62293E-01  0.95743E-01  0.11946E+00  0.12907E+00  0.12676E+00  0.11683E+00
  0.10182E+00  0.82270E-01  0.58572E-01  0.31822E-01  0.41202E-02 -0.20973E-01
 -0.39157E-01 -0.48067E-01 -0.49147E-01 -0.45658E-01 -0.38659E-01 -0.26086E-01
 -0.64876E-02  0.16967E-01 -0.14713E-01 -0.18849E-01 -0.20908E-01 -0.19474E-01
 -0.15087E-01 -0.94733E-02 -0.37971E-02  0.16694E-02  0.64570E-02  0.93996E-02
  0.94774E-02  0.67473E-02  0.22880E-02 -0.24810E-02 -0.62828E-02 -0.78972E-02
 -0.55950E-02  0.31619E-02  0.20552E-01  0.45854E-01  0.74045E-01  0.97906E-01
  0.11228E+00  0.11638E+00  0.11223E+00  0.10182E+00  0.85866E-01  0.64403E-01
  0.37741E-01  0.74640E-02 -0.22583E-01 -0.46766E-01 -0.60568E-01 -0.63596E-01
 -0.59066E-01 -0.49978E-01 -0.36450E-01 -0.17281E-01  0.64575E-02  0.30212E-01
 -0.12080E-01 -0.13633E-01 -0.12693E-01 -0.89195E-02 -0.35135E-02  0.21466E-02
  0.75097E-02  0.12207E-01  0.15160E-01  0.15090E-01  0.11816E-01  0.65702E-02
  0.10618E-02 -0.34234E-02 -0.59669E-02 -0.53745E-02  0.97907E-04  0.12035E-01
  0.30407E-01  0.52561E-01  0.73900E-01  0.90054E-01  0.98722E-01  0.99774E-01
  0.94063E-01  0.82270E-01  0.64403E-01  0.40067E-01  0.98154E-02 -0.22981E-01
 -0.51951E-01 -0.70735E-01 -0.76962E-01 -0.73013E-01 -0.62716E-01 -0.47909E-01
 -0.28582E-01 -0.54945E-02  0.18498E-01  0.39737E-01 -0.84346E-02 -0.74942E-02
 -0.41061E-02  0.11676E-02  0.70690E-02  0.12759E-01  0.17746E-01  0.21016E-01
  0.21141E-01  0.17587E-01  0.11517E-01  0.49735E-02 -0.51838E-03 -0.42659E-02
 -0.55894E-02 -0.31961E-02  0.43044E-02  0.17197E-01  0.33953E-01  0.51659E-01
  0.67155E-01  0.77969E-01  0.82668E-01  0.80834E-01  0.72744E-01  0.58572E-01
  0.37741E-01  0.98154E-02 -0.23029E-01 -0.54673E-01 -0.77523E-01 -0.87272E-01
 -0.85107E-01 -0.75070E-01 -0.59993E-01 -0.40620E-01 -0.17831E-01  0.59400E-02
  0.27952E-01  0.46791E-01 -0.45693E-02 -0.14983E-02  0.34608E-02  0.94071E-02
  0.15464E-01  0.21001E-01  0.25020E-01  0.25995E-01  0.22964E-01  0.16671E-01
  0.92364E-02  0.26178E-02 -0.23325E-02 -0.53040E-02 -0.55045E-02 -0.16808E-02
  0.67811E-02  0.19012E-01  0.32982E-01  0.46442E-01  0.57411E-01  0.64129E-01
  0.65239E-01  0.60218E-01  0.49169E-01  0.31822E-01  0.74640E-02 -0.22981E-01
 -0.54673E-01 -0.79935E-01 -0.92872E-01 -0.93034E-01 -0.84165E-01 -0.69885E-01
 -0.51475E-01 -0.29554E-01 -0.61494E-02  0.16056E-01  0.35817E-01  0.53433E-01
 -0.10922E-02  0.32699E-02  0.88099E-02  0.14840E-01  0.20744E-01  0.25594E-01
  0.27905E-01  0.26358E-01  0.20997E-01  0.13492E-01  0.60153E-02 -0.83124E-04
 -0.43910E-02 -0.65076E-02 -0.55132E-02 -0.62507E-03  0.78225E-02  0.18358E-01
  0.29256E-01  0.39097E-01  0.46480E-01  0.49746E-01  0.47514E-01  0.39253E-01
  0.24879E-01  0.41202E-02 -0.22583E-01 -0.51951E-01 -0.77523E-01 -0.92872E-01
 -0.95741E-01 -0.88664E-01 -0.75603E-01 -0.58714E-01 -0.38618E-01 -0.16584E-01
  0.50559E-02  0.24710E-01  0.42557E-01  0.59190E-01  0.11314E-02  0.58310E-02
  0.11334E-01  0.17146E-01  0.22472E-01  0.26038E-01  0.26462E-01  0.23146E-01
  0.16884E-01  0.94658E-02  0.25915E-02 -0.28272E-02 -0.63591E-02 -0.74022E-02
 -0.52488E-02  0.14346E-03  0.77728E-02  0.16204E-01  0.24345E-01  0.31336E-01
  0.35881E-01  0.36217E-01  0.30918E-01  0.19442E-01  0.18948E-02 -0.20973E-01
 -0.46766E-01 -0.70735E-01 -0.87272E-01 -0.93034E-01 -0.88664E-01 -0.77330E-01
 -0.61875E-01 -0.43702E-01 -0.23842E-01 -0.39008E-02  0.14622E-01  0.31451E-01
  0.47219E-01  0.62061E-01  0.12060E-02  0.57677E-02  0.11082E-01  0.16443E-01
  0.20798E-01  0.22991E-01  0.22173E-01  0.18278E-01  0.12225E-01  0.55163E-02
 -0.51663E-03 -0.50756E-02 -0.76109E-02 -0.75381E-02 -0.45741E-02  0.73685E-03
  0.71977E-02  0.13750E-01  0.19810E-01  0.24684E-01  0.26936E-01  0.24690E-01
  0.16579E-01  0.23641E-02 -0.16973E-01 -0.39157E-01 -0.60568E-01 -0.76962E-01
 -0.85107E-01 -0.84165E-01 -0.75603E-01 -0.61875E-01 -0.45211E-01 -0.27317E-01
 -0.95733E-02  0.70099E-02  0.22073E-01  0.35905E-01  0.48930E-01  0.61131E-01
 -0.11694E-02  0.32858E-02  0.83677E-02  0.13106E-01  0.16602E-01  0.18106E-01
  0.17049E-01  0.13411E-01  0.80332E-02  0.22778E-02 -0.27043E-02 -0.62321E-02
 -0.77782E-02 -0.68691E-02 -0.35389E-02  0.13969E-02  0.68440E-02  0.12106E-01
  0.16790E-01  0.20070E-01  0.20355E-01  0.15853E-01  0.55424E-02 -0.10125E-01
 -0.29081E-01 -0.48067E-01 -0.63596E-01 -0.73013E-01 -0.75070E-01 -0.69885E-01
 -0.58714E-01 -0.43702E-01 -0.27317E-01 -0.11467E-01  0.30118E-02  0.16051E-01
  0.27753E-01  0.38256E-01  0.47900E-01  0.57015E-01 -0.55588E-02 -0.11770E-02
  0.35955E-02  0.80168E-02  0.11551E-01  0.13419E-01  0.12790E-01  0.96387E-02
  0.50365E-02  0.35920E-03 -0.35344E-02 -0.61820E-02 -0.70330E-02 -0.56234E-02
 -0.21697E-02  0.24403E-02  0.73222E-02  0.11968E-01  0.15850E-01  0.17894E-01
  0.16533E-01  0.10317E-01 -0.12642E-02 -0.17063E-01 -0.34217E-01 -0.49147E-01
 -0.59066E-01 -0.62716E-01 -0.59993E-01 -0.51475E-01 -0.38618E-01 -0.23842E-01
 -0.95733E-02  0.30118E-02  0.14026E-01  0.23756E-01  0.32039E-01  0.38819E-01
  0.44679E-01  0.50243E-01 -0.11330E-01 -0.72170E-02 -0.24524E-02  0.27549E-02
  0.76215E-02  0.10557E-01  0.10407E-01  0.76218E-02  0.37390E-02 -0.29124E-04
 -0.32113E-02 -0.53633E-02 -0.57446E-02 -0.39451E-02 -0.36231E-03  0.42086E-02
  0.91224E-02  0.13784E-01  0.17280E-01  0.18378E-01  0.15762E-01  0.83336E-02
 -0.40713E-02 -0.19697E-01 -0.34862E-01 -0.45658E-01 -0.49978E-01 -0.47909E-01
 -0.40620E-01 -0.29554E-01 -0.16584E-01 -0.39008E-02  0.70099E-02  0.16051E-01
  0.23756E-01  0.30128E-01  0.34687E-01  0.37448E-01  0.39156E-01  0.40436E-01
 -0.18173E-01 -0.14261E-01 -0.83847E-02 -0.85956E-03  0.61979E-02  0.10142E-01
  0.10109E-01  0.74519E-02  0.39814E-02  0.56837E-03 -0.24089E-02 -0.42090E-02
 -0.40259E-02 -0.17460E-02  0.21488E-02  0.71511E-02  0.12689E-01  0.17747E-01
  0.21047E-01  0.21474E-01  0.17934E-01  0.92974E-02 -0.43573E-02 -0.20148E-01
 -0.32982E-01 -0.38659E-01 -0.36450E-01 -0.28582E-01 -0.17831E-01 -0.61494E-02
  0.50559E-02  0.14622E-01  0.22073E-01  0.27753E-01  0.32039E-01  0.34687E-01
  0.35225E-01  0.33726E-01  0.30855E-01  0.27374E-01 -0.25756E-01 -0.21040E-01
 -0.12366E-01 -0.15123E-02  0.75230E-02  0.11742E-01  0.11332E-01  0.84693E-02
  0.48816E-02  0.12928E-02 -0.15776E-02 -0.27544E-02 -0.17726E-02  0.11351E-02
  0.56760E-02  0.11584E-01  0.17982E-01  0.23411E-01  0.26679E-01  0.26911E-01
  0.22654E-01  0.12342E-01 -0.30646E-02 -0.18455E-01 -0.27200E-01 -0.26086E-01
 -0.17281E-01 -0.54945E-02  0.59400E-02  0.16056E-01  0.24710E-01  0.31451E-01
  0.35905E-01  0.38256E-01  0.38819E-01  0.37448E-01  0.33726E-01  0.27656E-01
  0.20004E-01  0.12092E-01 -0.32582E-01 -0.25175E-01 -0.12476E-01  0.13033E-02
  0.10960E-01  0.14370E-01  0.13081E-01  0.96218E-02  0.55137E-02  0.16971E-02
 -0.71490E-03 -0.94233E-03  0.95764E-03  0.46998E-02  0.10256E-01  0.17187E-01
  0.24184E-01  0.29951E-01  0.33818E-01  0.34540E-01  0.29450E-01  0.16941E-01
  0.34013E-03 -0.12426E-01 -0.14693E-01 -0.64876E-02  0.64575E-02  0.18498E-01
  0.27952E-01  0.35817E-01  0.42557E-01  0.47219E-01  0.48930E-01  0.47900E-01
  0.44679E-01  0.39156E-01  0.30855E-01  0.20004E-01  0.79153E-02 -0.35989E-02
 -0.35298E-01 -0.23562E-01 -0.72667E-02  0.73517E-02  0.15542E-01  0.17034E-01
  0.14428E-01  0.10110E-01  0.54650E-02  0.17546E-02  0.14113E-03  0.94657E-03
  0.38585E-02  0.87477E-02  0.15457E-01  0.23059E-01  0.30367E-01  0.36967E-01
  0.42257E-01  0.43401E-01  0.36480E-01  0.21574E-01  0.57326E-02 -0.14821E-02
  0.38153E-02  0.16967E-01  0.30212E-01  0.39737E-01  0.46791E-01  0.53433E-01
  0.59190E-01  0.62061E-01  0.61131E-01  0.57015E-01  0.50243E-01  0.40436E-01
  0.27374E-01  0.12092E-01 -0.35989E-02 -0.18072E-01  0.64884E-02  0.18525E-01
  0.29973E-01  0.36784E-01  0.36938E-01  0.31273E-01  0.21949E-01  0.10823E-01
 -0.56687E-03 -0.10472E-01 -0.17492E-01 -0.21607E-01 -0.23861E-01 -0.24959E-01
 -0.24860E-01 -0.23865E-01 -0.23076E-01 -0.23001E-01 -0.22380E-01 -0.19602E-01
 -0.15309E-01 -0.12528E-01 -0.13630E-01 -0.17680E-01 -0.21312E-01 -0.21815E-01
 -0.18849E-01 -0.13633E-01 -0.74942E-02 -0.14983E-02  0.32699E-02  0.58310E-02
  0.57677E-02  0.32858E-02 -0.11770E-02 -0.72170E-02 -0.14261E-01 -0.21040E-01
 -0.25175E-01 -0.23562E-01  0.18525E-01  0.28812E-01  0.36315E-01  0.38561E-01
  0.35217E-01  0.27584E-01  0.17258E-01  0.57429E-02 -0.51198E-02 -0.13441E-01
 -0.18457E-01 -0.20924E-01 -0.21967E-01 -0.22011E-01 -0.21245E-01 -0.20511E-01
 -0.20706E-01 -0.21417E-01 -0.21257E-01 -0.20063E-01 -0.19917E-01 -0.23029E-01
 -0.28811E-01 -0.33833E-01 -0.34747E-01 -0.30747E-01 -0.23265E-01 -0.14204E-01
 -0.50330E-02  0.29958E-02  0.87537E-02  0.11613E-01  0.11582E-01  0.89529E-02
  0.41114E-02 -0.22111E-02 -0.86681E-02 -0.13373E-01 -0.14214E-01 -0.94944E-02
  0.29973E-01  0.36315E-01  0.38790E-01  0.36714E-01  0.30621E-01  0.21564E-01
  0.10724E-01 -0.30592E-03 -0.95361E-02 -0.15535E-01 -0.18324E-01 -0.18978E-01
 -0.18491E-01 -0.17430E-01 -0.16510E-01 -0.16628E-01 -0.17963E-01 -0.19736E-01
 -0.21560E-01 -0.24640E-01 -0.30615E-01 -0.38964E-01 -0.46273E-01 -0.48620E-01
 -0.44514E-01 -0.35362E-01 -0.23670E-01 -0.11452E-01 -0.10857E-03  0.91662E-02
  0.15462E-01  0.18399E-01  0.18030E-01  0.14709E-01  0.93215E-02  0.34551E-02
 -0.10304E-02 -0.26976E-02 -0.82823E-03  0.45495E-02  0.36784E-01  0.38561E-01
  0.36714E-01  0.31508E-01  0.23576E-01  0.13764E-01  0.32960E-02 -0.61420E-02
 -0.12904E-01 -0.16246E-01 -0.16626E-01 -0.15179E-01 -0.13081E-01 -0.11417E-01
 -0.11134E-01 -0.12630E-01 -0.15561E-01 -0.19605E-01 -0.25389E-01 -0.33944E-01
 -0.44747E-01 -0.54639E-01 -0.59416E-01 -0.56750E-01 -0.47517E-01 -0.34490E-01
 -0.20239E-01 -0.63241E-02  0.62045E-02  0.16273E-01  0.22873E-01  0.25397E-01
  0.23917E-01  0.19409E-01  0.13750E-01  0.90901E-02  0.68675E-02  0.72995E-02
  0.97474E-02  0.13319E-01  0.36938E-01  0.35217E-01  0.30621E-01  0.23576E-01
  0.14760E-01  0.52032E-02 -0.37532E-02 -0.10685E-01 -0.14503E-01 -0.14906E-01
 -0.12575E-01 -0.89736E-02 -0.58390E-02 -0.45650E-02 -0.57364E-02 -0.91578E-02
 -0.14502E-01 -0.21992E-01 -0.32138E-01 -0.44419E-01 -0.56240E-01 -0.63684E-01
 -0.63827E-01 -0.56559E-01 -0.44241E-01 -0.29730E-01 -0.14808E-01 -0.25839E-03
  0.13080E-01  0.23710E-01  0.29974E-01  0.31078E-01  0.27754E-01  0.22087E-01
  0.16596E-01  0.13109E-01  0.12095E-01  0.12847E-01  0.14241E-01  0.15408E-01
  0.31273E-01  0.27584E-01  0.21564E-01  0.13764E-01  0.52032E-02 -0.28803E-02
 -0.93257E-02 -0.13124E-01 -0.13539E-01 -0.10587E-01 -0.55004E-02 -0.45944E-03
  0.24558E-02  0.22397E-02 -0.99370E-03 -0.67844E-02 -0.15006E-01 -0.25723E-01
 -0.38345E-01 -0.50912E-01 -0.60331E-01 -0.63713E-01 -0.59978E-01 -0.50414E-01
 -0.37573E-01 -0.23464E-01 -0.87703E-02  0.61895E-02  0.20044E-01  0.30288E-01
  0.34810E-01  0.33484E-01  0.28286E-01  0.22017E-01  0.16895E-01  0.13913E-01
  0.12926E-01  0.13071E-01  0.13320E-01  0.12992E-01  0.21949E-01  0.17258E-01
  0.10724E-01  0.32960E-02 -0.37531E-02 -0.93257E-02 -0.12564E-01 -0.12656E-01
 -0.91524E-02 -0.28093E-02  0.41509E-02  0.90802E-02  0.10395E-01  0.80234E-02
  0.25759E-02 -0.55354E-02 -0.16054E-01 -0.28246E-01 -0.40557E-01 -0.50812E-01
 -0.56780E-01 -0.56967E-01 -0.51414E-01 -0.41719E-01 -0.29829E-01 -0.16659E-01
 -0.22037E-02  0.12819E-01  0.25883E-01  0.33822E-01  0.35204E-01  0.31353E-01
  0.25115E-01  0.18965E-01  0.14231E-01  0.11353E-01  0.10159E-01  0.99075E-02
  0.96239E-02  0.86866E-02  0.10823E-01  0.57429E-02 -0.30592E-03 -0.61420E-02
 -0.10685E-01 -0.13124E-01 -0.12656E-01 -0.85932E-02 -0.12479E-02  0.73845E-02
  0.14362E-01  0.17544E-01  0.16553E-01  0.12093E-01  0.47954E-02 -0.49381E-02
 -0.16302E-01 -0.27865E-01 -0.38020E-01 -0.45347E-01 -0.48622E-01 -0.47115E-01
 -0.41212E-01 -0.32296E-01 -0.21552E-01 -0.91530E-02  0.47574E-02  0.18395E-01
  0.28451E-01  0.32400E-01  0.30478E-01  0.25155E-01  0.19019E-01  0.13529E-01
  0.93460E-02  0.68380E-02  0.58645E-02  0.55905E-02  0.50580E-02  0.38384E-02
 -0.56686E-03 -0.51197E-02 -0.95361E-02 -0.12904E-01 -0.14503E-01 -0.13539E-01
 -0.91524E-02 -0.12479E-02  0.85697E-02  0.17339E-01  0.22478E-01  0.23191E-01
  0.20147E-01  0.14157E-01  0.56756E-02 -0.45792E-02 -0.15235E-01 -0.24834E-01
 -0.32434E-01 -0.37370E-01 -0.38866E-01 -0.36466E-01 -0.30685E-01 -0.22613E-01
 -0.12832E-01 -0.14057E-02  0.10719E-01  0.20931E-01  0.26391E-01  0.26298E-01
  0.22325E-01  0.16898E-01  0.11561E-01  0.69835E-02  0.36844E-02  0.19774E-02
  0.14511E-02  0.11701E-02  0.50134E-03 -0.63765E-03 -0.10472E-01 -0.13441E-01
 -0.15535E-01 -0.16246E-01 -0.14906E-01 -0.10587E-01 -0.28093E-02  0.73845E-02
  0.17339E-01  0.24247E-01  0.26819E-01  0.25462E-01  0.21063E-01  0.14151E-01
  0.53021E-02 -0.42727E-02 -0.13131E-01 -0.20410E-01 -0.25807E-01 -0.28888E-01
 -0.28992E-01 -0.25965E-01 -0.20464E-01 -0.13234E-01 -0.45507E-02  0.50814E-02
  0.13944E-01  0.19606E-01  0.20729E-01  0.18082E-01  0.13579E-01  0.87280E-02
  0.42442E-02  0.65210E-03 -0.15458E-02 -0.23876E-02 -0.25677E-02 -0.27455E-02
 -0.30480E-02 -0.34595E-02 -0.17492E-01 -0.18457E-01 -0.18324E-01 -0.16626E-01
 -0.12575E-01 -0.55004E-02  0.41509E-02  0.14362E-01  0.22478E-01  0.26819E-01
  0.27309E-01  0.24671E-01  0.19492E-01  0.12308E-01  0.41382E-02 -0.36963E-02
 -0.10336E-01 -0.15566E-01 -0.19188E-01 -0.20660E-01 -0.19594E-01 -0.16271E-01
 -0.11314E-01 -0.50910E-02  0.20569E-02  0.90383E-02  0.14033E-01  0.15678E-01
  0.14086E-01  0.10496E-01  0.61539E-02  0.18086E-02 -0.19442E-02 -0.44913E-02
 -0.56257E-02 -0.57933E-02 -0.55853E-02 -0.51597E-02 -0.44406E-02 -0.36785E-02
 -0.21607E-01 -0.20924E-01 -0.18978E-01 -0.15179E-01 -0.89736E-02 -0.45943E-03
  0.90802E-02  0.17544E-01  0.23191E-01  0.25462E-01  0.24671E-01  0.21300E-01
  0.15911E-01  0.94628E-02  0.31094E-02 -0.24568E-02 -0.71373E-02 -0.10797E-01
 -0.12886E-01 -0.12926E-01 -0.11091E-01 -0.79480E-02 -0.38196E-02  0.11585E-02
  0.63373E-02  0.10378E-01  0.12070E-01  0.11193E-01  0.84281E-02  0.46294E-02
  0.45841E-03 -0.34177E-02 -0.62653E-02 -0.76965E-02 -0.79603E-02 -0.75689E-02
 -0.67074E-02 -0.52503E-02 -0.32982E-02 -0.13215E-02 -0.23861E-01 -0.21967E-01
 -0.18491E-01 -0.13081E-01 -0.58390E-02  0.24558E-02  0.10395E-01  0.16553E-01
  0.20147E-01  0.21063E-01  0.19492E-01  0.15911E-01  0.11296E-01  0.67692E-02
  0.28264E-02 -0.75696E-03 -0.40419E-02 -0.63494E-02 -0.69153E-02 -0.58199E-02
 -0.38025E-02 -0.13017E-02  0.17803E-02  0.52976E-02  0.83528E-02  0.98712E-02
  0.94456E-02  0.73918E-02  0.42234E-02  0.42492E-03 -0.33535E-02 -0.63138E-02
 -0.79581E-02 -0.83990E-02 -0.80678E-02 -0.71647E-02 -0.55347E-02 -0.30704E-02
 -0.37017E-04  0.31594E-02 -0.24959E-01 -0.22011E-01 -0.17430E-01 -0.11417E-01
 -0.45650E-02  0.22397E-02  0.80234E-02  0.12093E-01  0.14157E-01  0.14151E-01
  0.12308E-01  0.94628E-02  0.67692E-02  0.47310E-02  0.28423E-02  0.59802E-03
 -0.14392E-02 -0.21477E-02 -0.12704E-02  0.32017E-03  0.18353E-02  0.33996E-02
  0.53791E-02  0.74211E-02  0.86479E-02  0.85379E-02  0.71753E-02  0.48177E-02
  0.17210E-02 -0.15942E-02 -0.43513E-02 -0.60223E-02 -0.66592E-02 -0.66099E-02
 -0.60250E-02 -0.47220E-02 -0.24371E-02  0.87182E-03  0.49451E-02  0.94050E-02
 -0.24859E-01 -0.21245E-01 -0.16510E-01 -0.11134E-01 -0.57364E-02 -0.99371E-03
  0.25759E-02  0.47954E-02  0.56756E-02  0.53021E-02  0.41382E-02  0.31094E-02
  0.28264E-02  0.28423E-02  0.22933E-02  0.12841E-02  0.95253E-03  0.19527E-02
  0.35581E-02  0.47030E-02  0.53434E-02  0.61620E-02  0.73061E-02  0.81498E-02
  0.81959E-02  0.75258E-02  0.63049E-02  0.44765E-02  0.21811E-02  0.29784E-06
 -0.15425E-02 -0.24474E-02 -0.29659E-02 -0.30884E-02 -0.25055E-02 -0.87735E-03
  0.20222E-02  0.62101E-02  0.11339E-01  0.16781E-01 -0.23865E-01 -0.20511E-01
 -0.16628E-01 -0.12630E-01 -0.91578E-02 -0.67844E-02 -0.55354E-02 -0.49382E-02
 -0.45792E-02 -0.42728E-02 -0.36963E-02 -0.24569E-02 -0.75696E-03  0.59802E-03
  0.12841E-02  0.20360E-02  0.35814E-02  0.54517E-02  0.65963E-02  0.69034E-02